TITLE="Pressure integrated from Omni2D"
VARIABLES = "X","Y","Dudt","DvDt","Pcal","Preal","Count"
ZONE I=201, J=201
0 0 -0.314159 -0.314159 -0.626516 -0.5 1326
0 0.005 -0.314159 -0.511383 -0.624436 -0.499507 5814
0 0.01 -0.314159 -0.70775 -0.621371 -0.498029 7362
0 0.015 -0.314159 -0.902486 -0.617343 -0.495572 7008
0 0.02 -0.314159 -1.09482 -0.612369 -0.492146 6664
0 0.025 -0.314159 -1.284 -0.606457 -0.487764 6417
0 0.03 -0.314159 -1.46926 -0.599547 -0.482444 6151
0 0.035 -0.314159 -1.64989 -0.591754 -0.476207 5970
0 0.04 -0.314159 -1.82516 -0.583063 -0.469077 5856
0 0.045 -0.314159 -1.99437 -0.573514 -0.461082 5681
0 0.05 -0.314159 -2.15687 -0.563138 -0.452254 5558
0 0.055 -0.314159 -2.31201 -0.551972 -0.442628 5415
0 0.06 -0.314159 -2.45916 -0.540054 -0.432242 5324
0 0.065 -0.314159 -2.59775 -0.52741 -0.421137 5208
0 0.07 -0.314159 -2.72723 -0.514088 -0.409356 5097
0 0.075 -0.314159 -2.84708 -0.50015 -0.396946 5058
0 0.08 -0.314159 -2.95682 -0.48564 -0.383957 4957
0 0.085 -0.314159 -3.05602 -0.470609 -0.370438 4856
0 0.09 -0.314159 -3.14428 -0.455108 -0.356445 4846
0 0.095 -0.314159 -3.22125 -0.4392 -0.342031 4751
0 0.1 -0.314159 -3.28662 -0.422931 -0.327254 4664
0 0.105 -0.314159 -3.34012 -0.406363 -0.312172 4690
0 0.11 -0.314159 -3.38153 -0.389557 -0.296845 4550
0 0.115 -0.314159 -3.4107 -0.372578 -0.281333 4561
0 0.12 -0.314159 -3.42749 -0.355482 -0.265698 4457
0 0.125 -0.314159 -3.43184 -0.338333 -0.25 4439
0 0.13 -0.314159 -3.42371 -0.321194 -0.234302 4400
0 0.135 -0.314159 -3.40315 -0.304128 -0.218667 4352
0 0.14 -0.314159 -3.37021 -0.287195 -0.203155 4309
0 0.145 -0.314159 -3.32502 -0.270455 -0.187828 4265
0 0.15 -0.314159 -3.26775 -0.253973 -0.172746 4242
0 0.155 -0.314159 -3.19862 -0.237812 -0.157969 4232
0 0.16 -0.314159 -3.1179 -0.222014 -0.143555 4119
0 0.165 -0.314159 -3.02589 -0.206662 -0.129562 4159
0 0.17 -0.314159 -2.92294 -0.191792 -0.116043 4085
0 0.175 -0.314159 -2.80947 -0.177456 -0.103054 4075
0 0.18 -0.314159 -2.68589 -0.163723 -0.090644 4084
0 0.185 -0.314159 -2.5527 -0.150615 -0.0788632 4024
0 0.19 -0.314159 -2.4104 -0.138211 -0.0677579 4028
0 0.195 -0.314159 -2.25956 -0.126543 -0.0573717 3921
0 0.2 -0.314159 -2.10074 -0.11563 -0.0477458 3905
0 0.205 -0.314159 -1.93458 -0.105554 -0.038918 3910
0 0.21 -0.314159 -1.76171 -0.0963095 -0.0309233 3867
0 0.215 -0.314159 -1.5828 -0.0879482 -0.0237932 3846
0 0.22 -0.314159 -1.39856 -0.0804824 -0.0175559 3863
0 0.225 -0.314159 -1.20969 -0.0739766 -0.0122359 3827
0 0.23 -0.314159 -1.01694 -0.0683953 -0.00785421 3851
0 0.235 -0.314159 -0.821038 -0.0638119 -0.00442819 3772
0 0.24 -0.314159 -0.622758 -0.060207 -0.00197133 3762
0 0.245 -0.314159 -0.422868 -0.0575891 -0.000493319 3762
0 0.25 -0.314159 -0.222144 -0.0559799 -3.60822e-16 3726
0 0.255 -0.314159 -0.0213654 -0.0553722 -0.000493317 3691
0 0.26 -0.314159 0.178689 -0.0557578 -0.00197132 3708
0 0.265 -0.314159 0.377242 -0.0571549 -0.00442818 3704
0 0.27 -0.314159 0.573525 -0.0595315 -0.00785421 3658
0 0.275 -0.314159 0.766775 -0.0628871 -0.0122359 3642
0 0.28 -0.314159 0.956245 -0.0671755 -0.0175559 3647
0 0.285 -0.314159 1.1412 -0.0724171 -0.0237932 3627
0 0.29 -0.314159 1.32092 -0.0785798 -0.0309233 3635
0 0.295 -0.314159 1.49472 -0.0856122 -0.038918 3608
0 0.3 -0.314159 1.66192 -0.0935199 -0.0477457 3598
0 0.305 -0.314159 1.82188 -0.102216 -0.0573717 3577
0 0.31 -0.314159 1.97398 -0.111719 -0.0677578 3599
0 0.315 -0.314159 2.11764 -0.121946 -0.0788632 3526
0 0.32 -0.314159 2.2523 -0.132871 -0.090644 3552
0 0.325 -0.314159 2.37745 -0.144438 -0.103054 3546
0 0.33 -0.314159 2.49261 -0.156622 -0.116043 3553
0 0.335 -0.314159 2.59735 -0.16934 -0.129562 3537
0 0.34 -0.314159 2.69125 -0.182565 -0.143555 3520
0 0.345 -0.314159 2.77397 -0.196226 -0.157969 3496
0 0.35 -0.314159 2.84521 -0.210271 -0.172746 3465
0 0.355 -0.314159 2.90468 -0.224645 -0.187828 3430
0 0.36 -0.314159 2.95218 -0.239288 -0.203155 3484
0 0.365 -0.314159 2.98754 -0.254142 -0.218667 3470
0 0.37 -0.314159 3.01063 -0.269134 -0.234302 3456
0 0.375 -0.314159 3.02137 -0.284216 -0.25 3456
0 0.38 -0.314159 3.01974 -0.299317 -0.265698 3435
0 0.385 -0.314159 3.00577 -0.314382 -0.281333 3426
0 0.39 -0.314159 2.97953 -0.329345 -0.296845 3415
0 0.395 -0.314159 2.94113 -0.344147 -0.312172 3400
0 0.4 -0.314159 2.89075 -0.358727 -0.327254 3405
0 0.405 -0.314159 2.8286 -0.373026 -0.342031 3423
0 0.41 -0.314159 2.75495 -0.386984 -0.356445 3454
0 0.415 -0.314159 2.6701 -0.400549 -0.370438 3452
0 0.42 -0.314159 2.57441 -0.413659 -0.383957 3376
0 0.425 -0.314159 2.46826 -0.426266 -0.396946 3386
0 0.43 -0.314159 2.35211 -0.438317 -0.409356 3410
0 0.435 -0.314159 2.22642 -0.449763 -0.421137 3394
0 0.44 -0.314159 2.0917 -0.460561 -0.432242 3416
0 0.445 -0.314159 1.94851 -0.470662 -0.442628 3353
0 0.45 -0.314159 1.79744 -0.480025 -0.452254 3341
0 0.455 -0.314159 1.63908 -0.488614 -0.461082 3379
0 0.46 -0.314159 1.4741 -0.496396 -0.469077 3348
0 0.465 -0.314159 1.30315 -0.503345 -0.476207 3357
0 0.47 -0.314159 1.12693 -0.50942 -0.482444 3363
0 0.475 -0.314159 0.946157 -0.514602 -0.487764 3343
0 0.48 -0.314159 0.761556 -0.518869 -0.492146 3309
0 0.485 -0.314159 0.573877 -0.522207 -0.495572 3336
0 0.49 -0.314159 0.383878 -0.524602 -0.498029 3370
0 0.495 -0.314159 0.192328 -0.526037 -0.499507 3378
0 0.5 -0.314159 3.28297e-07 -0.526518 -0.5 3376
0 0.505 -0.314159 -0.192327 -0.526036 -0.499507 3378
0 0.51 -0.314159 -0.383878 -0.524601 -0.498029 3370
0 0.515 -0.314159 -0.573877 -0.522206 -0.495572 3334
0 0.52 -0.314159 -0.761556 -0.518872 -0.492146 3311
0 0.525 -0.314159 -0.946157 -0.514603 -0.487764 3343
0 0.53 -0.314159 -1.12693 -0.50942 -0.482444 3363
0 0.535 -0.314159 -1.30315 -0.503345 -0.476207 3357
0 0.54 -0.314159 -1.4741 -0.496396 -0.469077 3348
0 0.545 -0.314159 -1.63908 -0.488614 -0.461082 3379
0 0.55 -0.314159 -1.79744 -0.480027 -0.452254 3339
0 0.555 -0.314159 -1.94851 -0.470662 -0.442628 3355
0 0.56 -0.314159 -2.0917 -0.460561 -0.432242 3415
0 0.565 -0.314159 -2.22641 -0.449763 -0.421137 3394
0 0.57 -0.314159 -2.35211 -0.438317 -0.409356 3410
0 0.575 -0.314159 -2.46826 -0.426265 -0.396946 3386
0 0.58 -0.314159 -2.57441 -0.413659 -0.383957 3374
0 0.585 -0.314159 -2.6701 -0.400548 -0.370438 3450
0 0.59 -0.314159 -2.75495 -0.386984 -0.356445 3454
0 0.595 -0.314159 -2.8286 -0.373026 -0.342031 3423
0 0.6 -0.314159 -2.89075 -0.358727 -0.327254 3405
0 0.605 -0.314159 -2.94113 -0.344147 -0.312173 3400
0 0.61 -0.314159 -2.97953 -0.329345 -0.296845 3415
0 0.615 -0.314159 -3.00577 -0.314382 -0.281333 3426
0 0.62 -0.314159 -3.01974 -0.299317 -0.265698 3434
0 0.625 -0.314159 -3.02137 -0.284216 -0.25 3458
0 0.63 -0.314159 -3.01063 -0.269134 -0.234302 3456
0 0.635 -0.314159 -2.98754 -0.254142 -0.218667 3470
0 0.64 -0.314159 -2.95218 -0.239289 -0.203155 3484
0 0.645 -0.314159 -2.90468 -0.224652 -0.187828 3430
0 0.65 -0.314159 -2.84521 -0.21027 -0.172746 3465
0 0.655 -0.314159 -2.77397 -0.196226 -0.157969 3494
0 0.66 -0.314159 -2.69125 -0.182564 -0.143555 3520
0 0.665 -0.314159 -2.59735 -0.169339 -0.129562 3537
0 0.67 -0.314159 -2.49261 -0.156619 -0.116043 3553
0 0.675 -0.314159 -2.37745 -0.144438 -0.103054 3546
0 0.68 -0.314159 -2.2523 -0.13288 -0.090644 3552
0 0.685 -0.314159 -2.11764 -0.121954 -0.0788632 3526
0 0.69 -0.314159 -1.97398 -0.111719 -0.0677579 3597
0 0.695 -0.314159 -1.82188 -0.102237 -0.0573717 3579
0 0.7 -0.314159 -1.66192 -0.0935219 -0.0477458 3598
0 0.705 -0.314159 -1.49472 -0.0856135 -0.038918 3608
0 0.71 -0.314159 -1.32092 -0.0785801 -0.0309233 3635
0 0.715 -0.314159 -1.1412 -0.0724196 -0.0237933 3628
0 0.72 -0.314159 -0.956245 -0.0671755 -0.0175559 3647
0 0.725 -0.314159 -0.766776 -0.0628835 -0.0122359 3640
0 0.73 -0.314159 -0.573526 -0.0595299 -0.00785422 3660
0 0.735 -0.314159 -0.377243 -0.0571545 -0.00442819 3704
0 0.74 -0.314159 -0.17869 -0.055758 -0.00197133 3708
0 0.745 -0.314159 0.0213647 -0.0553716 -0.00049332 3691
0 0.75 -0.314159 0.222144 -0.0559802 -3.21965e-15 3726
0 0.755 -0.314159 0.422868 -0.0575889 -0.000493315 3762
0 0.76 -0.314159 0.622758 -0.0602063 -0.00197132 3760
0 0.765 -0.314159 0.821037 -0.0638123 -0.00442818 3775
0 0.77 -0.314159 1.01694 -0.0683972 -0.0078542 3851
0 0.775 -0.314159 1.20969 -0.0739834 -0.0122359 3827
0 0.78 -0.314159 1.39856 -0.0805057 -0.0175559 3863
0 0.785 -0.314159 1.5828 -0.0879588 -0.0237932 3846
0 0.79 -0.314159 1.76171 -0.0963205 -0.0309233 3867
0 0.795 -0.314159 1.93458 -0.105554 -0.038918 3908
0 0.8 -0.314159 2.10074 -0.115632 -0.0477457 3907
0 0.805 -0.314159 2.25956 -0.126543 -0.0573717 3921
0 0.81 -0.314159 2.4104 -0.138211 -0.0677578 4028
0 0.815 -0.314159 2.5527 -0.150614 -0.0788632 4024
0 0.82 -0.314159 2.68589 -0.16372 -0.090644 4084
0 0.825 -0.314159 2.80947 -0.177455 -0.103054 4075
0 0.83 -0.314159 2.92294 -0.191792 -0.116043 4083
0 0.835 -0.314159 3.02589 -0.206663 -0.129562 4161
0 0.84 -0.314159 3.1179 -0.222014 -0.143555 4119
0 0.845 -0.314159 3.19862 -0.23781 -0.157969 4232
0 0.85 -0.314159 3.26775 -0.25397 -0.172746 4242
0 0.855 -0.314159 3.32502 -0.270459 -0.187827 4265
0 0.86 -0.314159 3.37021 -0.287195 -0.203155 4309
0 0.865 -0.314159 3.40315 -0.304128 -0.218667 4350
0 0.87 -0.314159 3.42371 -0.321194 -0.234302 4402
0 0.875 -0.314159 3.43184 -0.338333 -0.25 4439
0 0.88 -0.314159 3.42749 -0.355481 -0.265698 4457
0 0.885 -0.314159 3.4107 -0.372577 -0.281333 4561
0 0.89 -0.314159 3.38153 -0.389556 -0.296845 4550
0 0.895 -0.314159 3.34012 -0.406364 -0.312172 4690
0 0.9 -0.314159 3.28662 -0.422931 -0.327254 4662
0 0.905 -0.314159 3.22125 -0.439201 -0.342031 4753
0 0.91 -0.314159 3.14428 -0.455109 -0.356445 4846
0 0.915 -0.314159 3.05602 -0.47061 -0.370438 4856
0 0.92 -0.314159 2.95682 -0.485641 -0.383957 4957
0 0.925 -0.314159 2.84708 -0.500151 -0.396946 5058
0 0.93 -0.314159 2.72723 -0.514087 -0.409356 5097
0 0.935 -0.314159 2.59775 -0.527414 -0.421137 5206
0 0.94 -0.314159 2.45916 -0.540053 -0.432242 5326
0 0.945 -0.314159 2.31201 -0.551972 -0.442628 5415
0 0.95 -0.314159 2.15687 -0.563139 -0.452254 5557
0 0.955 -0.314159 1.99438 -0.573516 -0.461082 5681
0 0.96 -0.314159 1.82516 -0.583056 -0.469077 5857
0 0.965 -0.314159 1.64989 -0.591743 -0.476207 5970
0 0.97 -0.314159 1.46926 -0.599542 -0.482444 6149
0 0.975 -0.314159 1.284 -0.606452 -0.487764 6419
0 0.98 -0.314159 1.09482 -0.612365 -0.492146 6664
0 0.985 -0.314159 0.902487 -0.617362 -0.495572 7008
0 0.99 -0.314159 0.707751 -0.621387 -0.498029 7362
0 0.995 -0.314159 0.511383 -0.624439 -0.499507 5814
0 1 -0.314159 0.31416 -0.626518 -0.5 1326
0.005 0 -0.511383 -0.314159 -0.624433 -0.499507 5814
0.005 0.005 -0.511383 -0.511383 -0.62236 -0.499013 6905
0.005 0.01 -0.511383 -0.70775 -0.619314 -0.497535 8463
0.005 0.015 -0.511383 -0.902486 -0.615303 -0.495079 9535
0.005 0.02 -0.511383 -1.09482 -0.610309 -0.491652 9130
0.005 0.025 -0.511383 -1.284 -0.60438 -0.487271 8805
0.005 0.03 -0.511383 -1.46926 -0.597479 -0.481951 8448
0.005 0.035 -0.511383 -1.64989 -0.589709 -0.475713 8078
0.005 0.04 -0.511383 -1.82516 -0.580988 -0.468583 7918
0.005 0.045 -0.511383 -1.99437 -0.571443 -0.460589 7700
0.005 0.05 -0.511383 -2.15687 -0.561066 -0.451761 7523
0.005 0.055 -0.511383 -2.31201 -0.549909 -0.442135 7350
0.005 0.06 -0.511383 -2.45916 -0.537985 -0.431749 7196
0.005 0.065 -0.511383 -2.59775 -0.525336 -0.420643 7024
0.005 0.07 -0.511383 -2.72723 -0.512029 -0.408863 6920
0.005 0.075 -0.511383 -2.84708 -0.498083 -0.396453 6822
0.005 0.08 -0.511383 -2.95682 -0.483583 -0.383463 6729
0.005 0.085 -0.511383 -3.05602 -0.468544 -0.369945 6540
0.005 0.09 -0.511383 -3.14428 -0.453044 -0.355952 6457
0.005 0.095 -0.511383 -3.22125 -0.437134 -0.341538 6446
0.005 0.1 -0.511383 -3.28662 -0.420864 -0.326761 6297
0.005 0.105 -0.511383 -3.34012 -0.404297 -0.311679 6241
0.005 0.11 -0.511383 -3.38153 -0.387494 -0.296352 6148
0.005 0.115 -0.511383 -3.4107 -0.370513 -0.28084 6055
0.005 0.12 -0.511383 -3.42749 -0.353418 -0.265204 6038
0.005 0.125 -0.511383 -3.43184 -0.33627 -0.249507 5912
0.005 0.13 -0.511383 -3.42371 -0.319131 -0.233809 5892
0.005 0.135 -0.511383 -3.40315 -0.302063 -0.218173 5821
0.005 0.14 -0.511383 -3.37021 -0.285129 -0.202661 5752
0.005 0.145 -0.511383 -3.32502 -0.268394 -0.187334 5709
0.005 0.15 -0.511383 -3.26775 -0.251912 -0.172252 5680
0.005 0.155 -0.511383 -3.19862 -0.235744 -0.157476 5620
0.005 0.16 -0.511383 -3.1179 -0.219949 -0.143062 5549
0.005 0.165 -0.511383 -3.02589 -0.204597 -0.129068 5518
0.005 0.17 -0.511383 -2.92294 -0.189725 -0.11555 5473
0.005 0.175 -0.511383 -2.80947 -0.175386 -0.10256 5403
0.005 0.18 -0.511383 -2.68589 -0.161651 -0.0901507 5383
0.005 0.185 -0.511383 -2.5527 -0.148557 -0.0783699 5325
0.005 0.19 -0.511383 -2.4104 -0.136141 -0.0672645 5295
0.005 0.195 -0.511383 -2.25956 -0.124478 -0.0568784 5278
0.005 0.2 -0.511383 -2.10074 -0.113563 -0.0472524 5229
0.005 0.205 -0.511383 -1.93458 -0.103491 -0.0384247 5206
0.005 0.21 -0.511383 -1.76171 -0.0942536 -0.03043 5156
0.005 0.215 -0.511383 -1.5828 -0.0858777 -0.0232999 5086
0.005 0.22 -0.511383 -1.39856 -0.0784212 -0.0170626 5064
0.005 0.225 -0.511383 -1.20969 -0.0719171 -0.0117426 5062
0.005 0.23 -0.511383 -1.01694 -0.0663305 -0.00736089 5039
0.005 0.235 -0.511383 -0.821038 -0.0617555 -0.00393487 5031
0.005 0.24 -0.511383 -0.622758 -0.0581342 -0.00147801 5025
0.005 0.245 -0.511383 -0.422868 -0.0555337 -8.41233e-10 4975
0.005 0.25 -0.511383 -0.222144 -0.0539021 0.000493318 4906
0.005 0.255 -0.511383 -0.0213654 -0.0532945 8.41232e-10 4923
0.005 0.26 -0.511383 0.178689 -0.0537044 -0.00147801 4903
0.005 0.265 -0.511383 0.377242 -0.0550824 -0.00393487 4863
0.005 0.27 -0.511383 0.573525 -0.0574691 -0.00736089 4821
0.005 0.275 -0.511383 0.766775 -0.0608184 -0.0117425 4851
0.005 0.28 -0.511383 0.956245 -0.0651104 -0.0170626 4814
0.005 0.285 -0.511383 1.1412 -0.0703502 -0.0232999 4776
0.005 0.29 -0.511383 1.32092 -0.0765209 -0.03043 4738
0.005 0.295 -0.511383 1.49472 -0.0835558 -0.0384247 4753
0.005 0.3 -0.511383 1.66192 -0.0914538 -0.0472524 4726
0.005 0.305 -0.511383 1.82188 -0.100161 -0.0568784 4727
0.005 0.31 -0.511383 1.97398 -0.109648 -0.0672645 4670
0.005 0.315 -0.511383 2.11764 -0.119887 -0.0783699 4658
0.005 0.32 -0.511383 2.2523 -0.130812 -0.0901507 4712
0.005 0.325 -0.511383 2.37745 -0.142371 -0.10256 4672
0.005 0.33 -0.511383 2.49261 -0.154558 -0.11555 4625
0.005 0.335 -0.511383 2.59735 -0.167271 -0.129068 4627
0.005 0.34 -0.511383 2.69125 -0.180504 -0.143062 4593
0.005 0.345 -0.511383 2.77397 -0.194165 -0.157476 4608
0.005 0.35 -0.511383 2.84521 -0.208213 -0.172252 4607
0.005 0.355 -0.511383 2.90468 -0.222583 -0.187334 4601
0.005 0.36 -0.511383 2.95218 -0.237227 -0.202661 4592
0.005 0.365 -0.511383 2.98754 -0.252074 -0.218173 4585
0.005 0.37 -0.511383 3.01063 -0.267071 -0.233809 4539
0.005 0.375 -0.511383 3.02137 -0.282153 -0.249507 4497
0.005 0.38 -0.511383 3.01974 -0.297254 -0.265204 4519
0.005 0.385 -0.511383 3.00577 -0.312317 -0.28084 4525
0.005 0.39 -0.511383 2.97953 -0.327282 -0.296352 4538
0.005 0.395 -0.511383 2.94113 -0.342083 -0.311679 4537
0.005 0.4 -0.511383 2.89075 -0.356663 -0.326761 4503
0.005 0.405 -0.511383 2.8286 -0.370961 -0.341538 4508
0.005 0.41 -0.511383 2.75495 -0.384919 -0.355951 4459
0.005 0.415 -0.511383 2.6701 -0.398482 -0.369945 4453
0.005 0.42 -0.511383 2.57441 -0.411594 -0.383463 4436
0.005 0.425 -0.511383 2.46826 -0.424199 -0.396453 4452
0.005 0.43 -0.511383 2.35211 -0.43625 -0.408863 4449
0.005 0.435 -0.511383 2.22642 -0.447696 -0.420643 4437
0.005 0.44 -0.511383 2.0917 -0.458493 -0.431749 4425
0.005 0.445 -0.511383 1.94851 -0.468594 -0.442135 4437
0.005 0.45 -0.511383 1.79744 -0.477958 -0.451761 4444
0.005 0.455 -0.511383 1.63908 -0.486549 -0.460589 4434
0.005 0.46 -0.511383 1.4741 -0.494336 -0.468583 4434
0.005 0.465 -0.511383 1.30315 -0.501283 -0.475713 4452
0.005 0.47 -0.511383 1.12693 -0.507352 -0.481951 4481
0.005 0.475 -0.511383 0.946157 -0.512538 -0.487271 4451
0.005 0.48 -0.511383 0.761556 -0.516808 -0.491652 4430
0.005 0.485 -0.511383 0.573877 -0.520146 -0.495079 4457
0.005 0.49 -0.511383 0.383878 -0.522542 -0.497535 4433
0.005 0.495 -0.511383 0.192328 -0.523971 -0.499013 4439
0.005 0.5 -0.511383 3.28297e-07 -0.524453 -0.499507 4418
0.005 0.505 -0.511383 -0.192327 -0.523971 -0.499013 4439
0.005 0.51 -0.511383 -0.383878 -0.522541 -0.497535 4433
0.005 0.515 -0.511383 -0.573877 -0.520148 -0.495079 4455
0.005 0.52 -0.511383 -0.761556 -0.516808 -0.491652 4432
0.005 0.525 -0.511383 -0.946157 -0.512538 -0.487271 4451
0.005 0.53 -0.511383 -1.12693 -0.507352 -0.481951 4481
0.005 0.535 -0.511383 -1.30315 -0.501279 -0.475713 4452
0.005 0.54 -0.511383 -1.4741 -0.494336 -0.468583 4434
0.005 0.545 -0.511383 -1.63908 -0.486547 -0.460589 4434
0.005 0.55 -0.511383 -1.79744 -0.477962 -0.451761 4442
0.005 0.555 -0.511383 -1.94851 -0.468595 -0.442135 4440
0.005 0.56 -0.511383 -2.0917 -0.458493 -0.431749 4425
0.005 0.565 -0.511383 -2.22641 -0.447696 -0.420643 4437
0.005 0.57 -0.511383 -2.35211 -0.43625 -0.408863 4449
0.005 0.575 -0.511383 -2.46826 -0.424199 -0.396453 4454
0.005 0.58 -0.511383 -2.57441 -0.411594 -0.383463 4436
0.005 0.585 -0.511383 -2.6701 -0.398482 -0.369945 4451
0.005 0.59 -0.511383 -2.75495 -0.384919 -0.355952 4461
0.005 0.595 -0.511383 -2.8286 -0.370961 -0.341538 4508
0.005 0.6 -0.511383 -2.89075 -0.356663 -0.326761 4503
0.005 0.605 -0.511383 -2.94113 -0.342083 -0.311679 4537
0.005 0.61 -0.511383 -2.97953 -0.327282 -0.296352 4538
0.005 0.615 -0.511383 -3.00577 -0.312317 -0.28084 4525
0.005 0.62 -0.511383 -3.01974 -0.297254 -0.265204 4517
0.005 0.625 -0.511383 -3.02137 -0.282153 -0.249507 4498
0.005 0.63 -0.511383 -3.01063 -0.267071 -0.233809 4539
0.005 0.635 -0.511383 -2.98754 -0.252075 -0.218173 4585
0.005 0.64 -0.511383 -2.95218 -0.237226 -0.202661 4592
0.005 0.645 -0.511383 -2.90468 -0.222584 -0.187334 4601
0.005 0.65 -0.511383 -2.84521 -0.208213 -0.172252 4607
0.005 0.655 -0.511383 -2.77397 -0.194166 -0.157476 4606
0.005 0.66 -0.511383 -2.69125 -0.180503 -0.143062 4595
0.005 0.665 -0.511383 -2.59735 -0.167271 -0.129068 4627
0.005 0.67 -0.511383 -2.49261 -0.154558 -0.11555 4625
0.005 0.675 -0.511383 -2.37745 -0.142371 -0.10256 4672
0.005 0.68 -0.511383 -2.2523 -0.130811 -0.0901507 4712
0.005 0.685 -0.511383 -2.11764 -0.119887 -0.0783699 4658
0.005 0.69 -0.511383 -1.97398 -0.109648 -0.0672645 4668
0.005 0.695 -0.511383 -1.82188 -0.10016 -0.0568784 4729
0.005 0.7 -0.511383 -1.66192 -0.0914565 -0.0472525 4726
0.005 0.705 -0.511383 -1.49472 -0.0835536 -0.0384247 4753
0.005 0.71 -0.511383 -1.32092 -0.0765225 -0.03043 4737
0.005 0.715 -0.511383 -1.1412 -0.0703533 -0.0232999 4776
0.005 0.72 -0.511383 -0.956245 -0.0651125 -0.0170626 4814
0.005 0.725 -0.511383 -0.766776 -0.0608168 -0.0117426 4849
0.005 0.73 -0.511383 -0.573526 -0.0574755 -0.0073609 4823
0.005 0.735 -0.511383 -0.377243 -0.0550823 -0.00393488 4863
0.005 0.74 -0.511383 -0.17869 -0.0537029 -0.00147801 4903
0.005 0.745 -0.511383 0.0213647 -0.0532902 -2.5237e-09 4923
0.005 0.75 -0.511383 0.222144 -0.0538996 0.000493318 4906
0.005 0.755 -0.511383 0.422868 -0.0555319 2.5237e-09 4975
0.005 0.76 -0.511383 0.622758 -0.0581342 -0.001478 5023
0.005 0.765 -0.511383 0.821037 -0.0617559 -0.00393486 5033
0.005 0.77 -0.511383 1.01694 -0.0663339 -0.00736088 5038
0.005 0.775 -0.511383 1.20969 -0.071918 -0.0117425 5062
0.005 0.78 -0.511383 1.39856 -0.0784254 -0.0170625 5064
0.005 0.785 -0.511383 1.5828 -0.0858789 -0.0232999 5086
0.005 0.79 -0.511383 1.76171 -0.0942546 -0.03043 5156
0.005 0.795 -0.511383 1.93458 -0.103484 -0.0384247 5204
0.005 0.8 -0.511383 2.10074 -0.113562 -0.0472524 5231
0.005 0.805 -0.511383 2.25956 -0.124479 -0.0568783 5278
0.005 0.81 -0.511383 2.4104 -0.136141 -0.0672645 5295
0.005 0.815 -0.511383 2.5527 -0.148558 -0.0783699 5325
0.005 0.82 -0.511383 2.68589 -0.161649 -0.0901507 5382
0.005 0.825 -0.511383 2.80947 -0.175386 -0.10256 5403
0.005 0.83 -0.511383 2.92294 -0.189724 -0.11555 5471
0.005 0.835 -0.511383 3.02589 -0.204601 -0.129068 5520
0.005 0.84 -0.511383 3.1179 -0.219949 -0.143062 5549
0.005 0.845 -0.511383 3.19862 -0.235744 -0.157476 5620
0.005 0.85 -0.511383 3.26775 -0.251913 -0.172252 5680
0.005 0.855 -0.511383 3.32502 -0.268395 -0.187334 5709
0.005 0.86 -0.511383 3.37021 -0.285127 -0.202661 5752
0.005 0.865 -0.511383 3.40315 -0.302061 -0.218173 5819
0.005 0.87 -0.511383 3.42371 -0.319131 -0.233809 5894
0.005 0.875 -0.511383 3.43184 -0.336269 -0.249507 5912
0.005 0.88 -0.511383 3.42749 -0.353417 -0.265204 6038
0.005 0.885 -0.511383 3.4107 -0.370512 -0.28084 6055
0.005 0.89 -0.511383 3.38153 -0.387493 -0.296352 6148
0.005 0.895 -0.511383 3.34012 -0.404296 -0.311679 6241
0.005 0.9 -0.511383 3.28662 -0.420864 -0.326761 6296
0.005 0.905 -0.511383 3.22125 -0.437135 -0.341538 6448
0.005 0.91 -0.511383 3.14428 -0.453042 -0.355951 6457
0.005 0.915 -0.511383 3.05602 -0.468543 -0.369945 6540
0.005 0.92 -0.511383 2.95682 -0.483568 -0.383463 6729
0.005 0.925 -0.511383 2.84708 -0.498083 -0.396453 6822
0.005 0.93 -0.511383 2.72723 -0.512029 -0.408863 6920
0.005 0.935 -0.511383 2.59775 -0.525335 -0.420643 7022
0.005 0.94 -0.511383 2.45916 -0.537986 -0.431749 7198
0.005 0.945 -0.511383 2.31201 -0.549917 -0.442135 7350
0.005 0.95 -0.511383 2.15687 -0.561068 -0.451761 7523
0.005 0.955 -0.511383 1.99438 -0.571446 -0.460589 7701
0.005 0.96 -0.511383 1.82516 -0.580988 -0.468583 7918
0.005 0.965 -0.511383 1.64989 -0.589672 -0.475713 8078
0.005 0.97 -0.511383 1.46926 -0.597493 -0.481951 8446
0.005 0.975 -0.511383 1.284 -0.60439 -0.487271 8807
0.005 0.98 -0.511383 1.09482 -0.610295 -0.491652 9130
0.005 0.985 -0.511383 0.902487 -0.615311 -0.495078 9535
0.005 0.99 -0.511383 0.707751 -0.619314 -0.497535 8463
0.005 0.995 -0.511383 0.511383 -0.622366 -0.499013 6904
0.005 1 -0.511383 0.31416 -0.624436 -0.499507 5814
0.01 0 -0.70775 -0.314159 -0.621369 -0.498029 7362
0.01 0.005 -0.70775 -0.511383 -0.619311 -0.497535 8463
0.01 0.01 -0.70775 -0.70775 -0.616273 -0.496057 7527
0.01 0.015 -0.70775 -0.902486 -0.612246 -0.4936 8694
0.01 0.02 -0.70775 -1.09482 -0.607278 -0.490174 9497
0.01 0.025 -0.70775 -1.284 -0.601315 -0.485793 9140
0.01 0.03 -0.70775 -1.46926 -0.594427 -0.480473 8805
0.01 0.035 -0.70775 -1.64989 -0.586662 -0.474235 8445
0.01 0.04 -0.70775 -1.82516 -0.57794 -0.467105 8114
0.01 0.045 -0.70775 -1.99437 -0.568396 -0.459111 7914
0.01 0.05 -0.70775 -2.15687 -0.558018 -0.450283 7703
0.01 0.055 -0.70775 -2.31201 -0.546862 -0.440657 7548
0.01 0.06 -0.70775 -2.45916 -0.534935 -0.430271 7358
0.01 0.065 -0.70775 -2.59775 -0.522283 -0.419165 7161
0.01 0.07 -0.70775 -2.72723 -0.508982 -0.407385 7040
0.01 0.075 -0.70775 -2.84708 -0.495036 -0.394975 6922
0.01 0.08 -0.70775 -2.95682 -0.480537 -0.381985 6837
0.01 0.085 -0.70775 -3.05602 -0.465497 -0.368467 6697
0.01 0.09 -0.70775 -3.14428 -0.449995 -0.354474 6558
0.01 0.095 -0.70775 -3.22125 -0.434085 -0.34006 6520
0.01 0.1 -0.70775 -3.28662 -0.417815 -0.325283 6402
0.01 0.105 -0.70775 -3.34012 -0.401248 -0.310201 6278
0.01 0.11 -0.70775 -3.38153 -0.384446 -0.294874 6285
0.01 0.115 -0.70775 -3.4107 -0.367466 -0.279362 6121
0.01 0.12 -0.70775 -3.42749 -0.35037 -0.263726 6134
0.01 0.125 -0.70775 -3.43184 -0.333221 -0.248029 6047
0.01 0.13 -0.70775 -3.42371 -0.316082 -0.232331 5908
0.01 0.135 -0.70775 -3.40315 -0.299015 -0.216695 5887
0.01 0.14 -0.70775 -3.37021 -0.282082 -0.201183 5826
0.01 0.145 -0.70775 -3.32502 -0.265345 -0.185856 5777
0.01 0.15 -0.70775 -3.26775 -0.248864 -0.170774 5745
0.01 0.155 -0.70775 -3.19862 -0.232693 -0.155998 5662
0.01 0.16 -0.70775 -3.1179 -0.216901 -0.141584 5629
0.01 0.165 -0.70775 -3.02589 -0.20155 -0.12759 5582
0.01 0.17 -0.70775 -2.92294 -0.186674 -0.114072 5579
0.01 0.175 -0.70775 -2.80947 -0.172337 -0.101082 5518
0.01 0.18 -0.70775 -2.68589 -0.1586 -0.0886727 5431
0.01 0.185 -0.70775 -2.5527 -0.145516 -0.0768919 5419
0.01 0.19 -0.70775 -2.4104 -0.133093 -0.0657865 5397
0.01 0.195 -0.70775 -2.25956 -0.121426 -0.0554004 5330
0.01 0.2 -0.70775 -2.10074 -0.110515 -0.0457744 5323
0.01 0.205 -0.70775 -1.93458 -0.100443 -0.0369467 5306
0.01 0.21 -0.70775 -1.76171 -0.0912049 -0.028952 5209
0.01 0.215 -0.70775 -1.5828 -0.0828288 -0.0218219 5185
0.01 0.22 -0.70775 -1.39856 -0.0753749 -0.0155846 5147
0.01 0.225 -0.70775 -1.20969 -0.068868 -0.0102646 5106
0.01 0.23 -0.70775 -1.01694 -0.063286 -0.00588289 5089
0.01 0.235 -0.70775 -0.821038 -0.058707 -0.00245687 5082
0.01 0.24 -0.70775 -0.622758 -0.0550831 -1.67915e-09 5046
0.01 0.245 -0.70775 -0.422868 -0.0524838 0.00147801 5021
0.01 0.25 -0.70775 -0.222144 -0.0508586 0.00197132 5006
0.01 0.255 -0.70775 -0.0213654 -0.0502517 0.00147801 5007
0.01 0.26 -0.70775 0.178689 -0.0506555 1.67915e-09 4958
0.01 0.265 -0.70775 0.377242 -0.0520317 -0.00245686 4955
0.01 0.27 -0.70775 0.573525 -0.0544262 -0.00588288 4925
0.01 0.275 -0.70775 0.766775 -0.0577675 -0.0102645 4879
0.01 0.28 -0.70775 0.956245 -0.0620686 -0.0155845 4815
0.01 0.285 -0.70775 1.1412 -0.0673036 -0.0218219 4859
0.01 0.29 -0.70775 1.32092 -0.0734741 -0.028952 4845
0.01 0.295 -0.70775 1.49472 -0.0805068 -0.0369467 4829
0.01 0.3 -0.70775 1.66192 -0.0884039 -0.0457744 4778
0.01 0.305 -0.70775 1.82188 -0.0971113 -0.0554004 4795
0.01 0.31 -0.70775 1.97398 -0.106597 -0.0657865 4795
0.01 0.315 -0.70775 2.11764 -0.116837 -0.0768919 4733
0.01 0.32 -0.70775 2.2523 -0.127761 -0.0886727 4727
0.01 0.325 -0.70775 2.37745 -0.139323 -0.101082 4665
0.01 0.33 -0.70775 2.49261 -0.15151 -0.114072 4686
0.01 0.335 -0.70775 2.59735 -0.164225 -0.12759 4692
0.01 0.34 -0.70775 2.69125 -0.177455 -0.141584 4664
0.01 0.345 -0.70775 2.77397 -0.191119 -0.155998 4681
0.01 0.35 -0.70775 2.84521 -0.205164 -0.170774 4633
0.01 0.355 -0.70775 2.90468 -0.219533 -0.185856 4582
0.01 0.36 -0.70775 2.95218 -0.234181 -0.201183 4610
0.01 0.365 -0.70775 2.98754 -0.249026 -0.216695 4616
0.01 0.37 -0.70775 3.01063 -0.264026 -0.232331 4624
0.01 0.375 -0.70775 3.02137 -0.279105 -0.248029 4612
0.01 0.38 -0.70775 3.01974 -0.294206 -0.263726 4549
0.01 0.385 -0.70775 3.00577 -0.309271 -0.279362 4546
0.01 0.39 -0.70775 2.97953 -0.324233 -0.294874 4506
0.01 0.395 -0.70775 2.94113 -0.339035 -0.310201 4517
0.01 0.4 -0.70775 2.89075 -0.353615 -0.325283 4521
0.01 0.405 -0.70775 2.8286 -0.367914 -0.34006 4552
0.01 0.41 -0.70775 2.75495 -0.381873 -0.354473 4559
0.01 0.415 -0.70775 2.6701 -0.395436 -0.368467 4534
0.01 0.42 -0.70775 2.57441 -0.408547 -0.381985 4519
0.01 0.425 -0.70775 2.46826 -0.421152 -0.394975 4529
0.01 0.43 -0.70775 2.35211 -0.433202 -0.407385 4517
0.01 0.435 -0.70775 2.22642 -0.444652 -0.419165 4504
0.01 0.44 -0.70775 2.0917 -0.455444 -0.430271 4467
0.01 0.445 -0.70775 1.94851 -0.465545 -0.440657 4477
0.01 0.45 -0.70775 1.79744 -0.474911 -0.450283 4486
0.01 0.455 -0.70775 1.63908 -0.483501 -0.459111 4457
0.01 0.46 -0.70775 1.4741 -0.491288 -0.467105 4441
0.01 0.465 -0.70775 1.30315 -0.498233 -0.474235 4431
0.01 0.47 -0.70775 1.12693 -0.504302 -0.480473 4452
0.01 0.475 -0.70775 0.946157 -0.509488 -0.485793 4457
0.01 0.48 -0.70775 0.761556 -0.513759 -0.490174 4492
0.01 0.485 -0.70775 0.573877 -0.5171 -0.4936 4476
0.01 0.49 -0.70775 0.383878 -0.519494 -0.496057 4411
0.01 0.495 -0.70775 0.192328 -0.520925 -0.497535 4430
0.01 0.5 -0.70775 3.28297e-07 -0.521405 -0.498029 4458
0.01 0.505 -0.70775 -0.192327 -0.520925 -0.497535 4430
0.01 0.51 -0.70775 -0.383878 -0.519493 -0.496057 4411
0.01 0.515 -0.70775 -0.573877 -0.517099 -0.4936 4474
0.01 0.52 -0.70775 -0.761556 -0.513758 -0.490174 4494
0.01 0.525 -0.70775 -0.946157 -0.509488 -0.485793 4457
0.01 0.53 -0.70775 -1.12693 -0.504302 -0.480473 4452
0.01 0.535 -0.70775 -1.30315 -0.498235 -0.474235 4431
0.01 0.54 -0.70775 -1.4741 -0.49129 -0.467105 4441
0.01 0.545 -0.70775 -1.63908 -0.483501 -0.459111 4457
0.01 0.55 -0.70775 -1.79744 -0.474914 -0.450283 4484
0.01 0.555 -0.70775 -1.94851 -0.465545 -0.440657 4479
0.01 0.56 -0.70775 -2.0917 -0.455444 -0.430271 4467
0.01 0.565 -0.70775 -2.22641 -0.444647 -0.419165 4504
0.01 0.57 -0.70775 -2.35211 -0.433202 -0.407385 4517
0.01 0.575 -0.70775 -2.46826 -0.421151 -0.394975 4529
0.01 0.58 -0.70775 -2.57441 -0.408547 -0.381985 4519
0.01 0.585 -0.70775 -2.6701 -0.395434 -0.368467 4532
0.01 0.59 -0.70775 -2.75495 -0.381873 -0.354474 4561
0.01 0.595 -0.70775 -2.8286 -0.367914 -0.34006 4552
0.01 0.6 -0.70775 -2.89075 -0.353615 -0.325283 4521
0.01 0.605 -0.70775 -2.94113 -0.339035 -0.310201 4517
0.01 0.61 -0.70775 -2.97953 -0.324233 -0.294874 4506
0.01 0.615 -0.70775 -3.00577 -0.309271 -0.279362 4546
0.01 0.62 -0.70775 -3.01974 -0.294206 -0.263726 4547
0.01 0.625 -0.70775 -3.02137 -0.279105 -0.248029 4614
0.01 0.63 -0.70775 -3.01063 -0.264027 -0.232331 4624
0.01 0.635 -0.70775 -2.98754 -0.249026 -0.216695 4616
0.01 0.64 -0.70775 -2.95218 -0.234181 -0.201183 4610
0.01 0.645 -0.70775 -2.90468 -0.219537 -0.185856 4582
0.01 0.65 -0.70775 -2.84521 -0.205164 -0.170774 4633
0.01 0.655 -0.70775 -2.77397 -0.191119 -0.155998 4679
0.01 0.66 -0.70775 -2.69125 -0.177455 -0.141584 4666
0.01 0.665 -0.70775 -2.59735 -0.164225 -0.12759 4692
0.01 0.67 -0.70775 -2.49261 -0.151511 -0.114072 4686
0.01 0.675 -0.70775 -2.37745 -0.139333 -0.101082 4665
0.01 0.68 -0.70775 -2.2523 -0.127761 -0.0886727 4727
0.01 0.685 -0.70775 -2.11764 -0.116839 -0.0768919 4733
0.01 0.69 -0.70775 -1.97398 -0.106597 -0.0657865 4793
0.01 0.695 -0.70775 -1.82188 -0.0971089 -0.0554004 4797
0.01 0.7 -0.70775 -1.66192 -0.0884062 -0.0457744 4778
0.01 0.705 -0.70775 -1.49472 -0.0805069 -0.0369467 4829
0.01 0.71 -0.70775 -1.32092 -0.073475 -0.028952 4845
0.01 0.715 -0.70775 -1.1412 -0.0673069 -0.0218219 4859
0.01 0.72 -0.70775 -0.956245 -0.0620679 -0.0155846 4815
0.01 0.725 -0.70775 -0.766776 -0.0577666 -0.0102646 4877
0.01 0.73 -0.70775 -0.573526 -0.0544293 -0.00588289 4927
0.01 0.735 -0.70775 -0.377243 -0.0520318 -0.00245687 4955
0.01 0.74 -0.70775 -0.17869 -0.0506551 -5.03744e-09 4958
0.01 0.745 -0.70775 0.0213647 -0.0502612 0.001478 5007
0.01 0.75 -0.70775 0.222144 -0.0508537 0.00197132 5006
0.01 0.755 -0.70775 0.422868 -0.0524838 0.00147801 5021
0.01 0.76 -0.70775 0.622758 -0.0550835 5.03743e-09 5044
0.01 0.765 -0.70775 0.821037 -0.0587074 -0.00245686 5084
0.01 0.77 -0.70775 1.01694 -0.0632868 -0.00588288 5089
0.01 0.775 -0.70775 1.20969 -0.0688687 -0.0102645 5106
0.01 0.78 -0.70775 1.39856 -0.0753766 -0.0155845 5147