TITLE="Pressure integrated from Omni2D"
VARIABLES = "X","Y","Dudt","DvDt","Pcal","Preal","Count"
ZONE I=201, J=201
0 0 -0 0 -0.499835 -0.5 1326
0 0.005 -0.00222135 -0.197262 -0.496666 -0.499507 5814
0 0.01 -0.00444215 -0.393746 -0.497118 -0.498029 7362
0 0.015 -0.00666186 -0.588676 -0.496003 -0.495572 7008
0 0.02 -0.00887992 -0.781282 -0.493515 -0.492146 6664
0 0.025 -0.0110958 -0.970805 -0.489946 -0.487764 6417
0 0.03 -0.0133089 -1.1565 -0.485195 -0.482444 6151
0 0.035 -0.0155188 -1.33763 -0.479649 -0.476207 5970
0 0.04 -0.0177248 -1.51347 -0.473194 -0.469077 5856
0 0.045 -0.0199264 -1.68335 -0.465843 -0.461082 5681
0 0.05 -0.0221232 -1.84658 -0.457676 -0.452254 5558
0 0.055 -0.0243144 -2.00253 -0.448641 -0.442628 5415
0 0.06 -0.0264997 -2.15057 -0.438803 -0.432242 5324
0 0.065 -0.0286785 -2.29012 -0.428219 -0.421137 5208
0 0.07 -0.0308501 -2.42064 -0.417039 -0.409356 5097
0 0.075 -0.0330142 -2.5416 -0.405264 -0.396946 5058
0 0.08 -0.0351701 -2.65253 -0.392761 -0.383957 4957
0 0.085 -0.0373173 -2.753 -0.379766 -0.370438 4856
0 0.09 -0.0394553 -2.8426 -0.366459 -0.356445 4846
0 0.095 -0.0415836 -2.92098 -0.352586 -0.342031 4751
0 0.1 -0.0437016 -2.98783 -0.338212 -0.327254 4664
0 0.105 -0.0458088 -3.04289 -0.323774 -0.312172 4690
0 0.11 -0.0479048 -3.08595 -0.308984 -0.296845 4550
0 0.115 -0.0499889 -3.11682 -0.294106 -0.281333 4561
0 0.12 -0.0520607 -3.13539 -0.278927 -0.265698 4457
0 0.125 -0.0541196 -3.14159 -0.263739 -0.25 4439
0 0.13 -0.0561652 -3.13539 -0.248672 -0.234302 4400
0 0.135 -0.0581969 -3.11682 -0.233527 -0.218667 4352
0 0.14 -0.0602143 -3.08595 -0.218519 -0.203155 4309
0 0.145 -0.0622168 -3.04289 -0.203813 -0.187828 4265
0 0.15 -0.0642039 -2.98783 -0.189247 -0.172746 4242
0 0.155 -0.0661753 -2.92098 -0.174871 -0.157969 4232
0 0.16 -0.0681303 -2.8426 -0.160958 -0.143555 4119
0 0.165 -0.0700684 -2.753 -0.147446 -0.129562 4159
0 0.17 -0.0719893 -2.65253 -0.134506 -0.116043 4085
0 0.175 -0.0738925 -2.5416 -0.122015 -0.103054 4075
0 0.18 -0.0757774 -2.42064 -0.110067 -0.090644 4084
0 0.185 -0.0776436 -2.29012 -0.0987068 -0.0788632 4024
0 0.19 -0.0794906 -2.15057 -0.087994 -0.0677579 4028
0 0.195 -0.081318 -2.00253 -0.0782014 -0.0573717 3921
0 0.2 -0.0831254 -1.84658 -0.0690692 -0.0477458 3905
0 0.205 -0.0849122 -1.68335 -0.0607224 -0.038918 3910
0 0.21 -0.0866781 -1.51347 -0.0531666 -0.0309233 3867
0 0.215 -0.0884227 -1.33763 -0.0464836 -0.0237932 3846
0 0.22 -0.0901454 -1.1565 -0.0406009 -0.0175559 3863
0 0.225 -0.0918458 -0.970806 -0.0358944 -0.0122359 3827
0 0.23 -0.0935236 -0.781282 -0.0319638 -0.00785421 3851
0 0.235 -0.0951783 -0.588676 -0.0289724 -0.00442819 3772
0 0.24 -0.0968096 -0.393746 -0.0268901 -0.00197133 3762
0 0.245 -0.0984169 -0.197262 -0.0258584 -0.000493319 3762
0 0.25 -0.1 -1.68357e-07 -0.0257378 -3.60822e-16 3726
0 0.255 -0.101558 0.197262 -0.0265939 -0.000493317 3691
0 0.26 -0.103092 0.393746 -0.0285157 -0.00197132 3708
0 0.265 -0.1046 0.588676 -0.0314041 -0.00442818 3704
0 0.27 -0.106082 0.781282 -0.0351982 -0.00785421 3658
0 0.275 -0.107538 0.970805 -0.0400308 -0.0122359 3642
0 0.28 -0.108967 1.1565 -0.0457569 -0.0175559 3647
0 0.285 -0.11037 1.33762 -0.0522789 -0.0237932 3627
0 0.29 -0.111745 1.51347 -0.0598506 -0.0309233 3635
0 0.295 -0.113092 1.68335 -0.0680673 -0.038918 3608
0 0.3 -0.114412 1.84658 -0.0773126 -0.0477457 3598
0 0.305 -0.115704 2.00253 -0.0872274 -0.0573717 3577
0 0.31 -0.116967 2.15057 -0.0979405 -0.0677578 3599
0 0.315 -0.118201 2.29012 -0.109426 -0.0788632 3526
0 0.32 -0.119406 2.42064 -0.121583 -0.090644 3552
0 0.325 -0.120582 2.5416 -0.1344 -0.103054 3546
0 0.33 -0.121727 2.65253 -0.147566 -0.116043 3553
0 0.335 -0.122843 2.753 -0.161442 -0.129562 3537
0 0.34 -0.123928 2.8426 -0.175802 -0.143555 3520
0 0.345 -0.124983 2.92098 -0.190427 -0.157969 3496
0 0.35 -0.126007 2.98783 -0.205486 -0.172746 3465
0 0.355 -0.127 3.04289 -0.220991 -0.187828 3430
0 0.36 -0.127962 3.08595 -0.236258 -0.203155 3484
0 0.365 -0.128892 3.11682 -0.251893 -0.218667 3470
0 0.37 -0.12979 3.13539 -0.267795 -0.234302 3456
0 0.375 -0.130656 3.14159 -0.283694 -0.25 3456
0 0.38 -0.13149 3.13539 -0.299695 -0.265698 3435
0 0.385 -0.132292 3.11682 -0.315671 -0.281333 3426
0 0.39 -0.133061 3.08595 -0.331511 -0.296845 3415
0 0.395 -0.133797 3.04289 -0.347062 -0.312172 3400
0 0.4 -0.1345 2.98783 -0.362205 -0.327254 3405
0 0.405 -0.13517 2.92098 -0.376799 -0.342031 3423
0 0.41 -0.135806 2.8426 -0.391583 -0.356445 3454
0 0.415 -0.136409 2.753 -0.405746 -0.370438 3452
0 0.42 -0.136978 2.65253 -0.419419 -0.383957 3376
0 0.425 -0.137514 2.5416 -0.43245 -0.396946 3386
0 0.43 -0.138015 2.42064 -0.445225 -0.409356 3410
0 0.435 -0.138483 2.29012 -0.457026 -0.421137 3394
0 0.44 -0.138916 2.15057 -0.468259 -0.432242 3416
0 0.445 -0.139316 2.00253 -0.478733 -0.442628 3353
0 0.45 -0.13968 1.84658 -0.488354 -0.452254 3341
0 0.455 -0.14001 1.68335 -0.497375 -0.461082 3379
0 0.46 -0.140306 1.51347 -0.505625 -0.469077 3348
0 0.465 -0.140567 1.33763 -0.51291 -0.476207 3357
0 0.47 -0.140794 1.1565 -0.519287 -0.482444 3363
0 0.475 -0.140985 0.970806 -0.524669 -0.487764 3343
0 0.48 -0.141142 0.781283 -0.528933 -0.492146 3309
0 0.485 -0.141264 0.588676 -0.532359 -0.495572 3336
0 0.49 -0.141352 0.393746 -0.535021 -0.498029 3370
0 0.495 -0.141404 0.197263 -0.536555 -0.499507 3378
0 0.5 -0.141421 3.36715e-07 -0.536975 -0.5 3376
0 0.505 -0.141404 -0.197262 -0.536552 -0.499507 3378
0 0.51 -0.141352 -0.393746 -0.535015 -0.498029 3370
0 0.515 -0.141264 -0.588675 -0.532356 -0.495572 3334
0 0.52 -0.141142 -0.781282 -0.528929 -0.492146 3311
0 0.525 -0.140985 -0.970805 -0.524665 -0.487764 3343
0 0.53 -0.140794 -1.1565 -0.519288 -0.482444 3363
0 0.535 -0.140567 -1.33762 -0.512925 -0.476207 3357
0 0.54 -0.140306 -1.51347 -0.505655 -0.469077 3348
0 0.545 -0.14001 -1.68335 -0.497386 -0.461082 3379
0 0.55 -0.13968 -1.84658 -0.488353 -0.452254 3339
0 0.555 -0.139316 -2.00253 -0.478731 -0.442628 3355
0 0.56 -0.138916 -2.15057 -0.468258 -0.432242 3415
0 0.565 -0.138483 -2.29012 -0.457028 -0.421137 3394
0 0.57 -0.138015 -2.42064 -0.445219 -0.409356 3410
0 0.575 -0.137514 -2.5416 -0.432438 -0.396946 3386
0 0.58 -0.136978 -2.65253 -0.419417 -0.383957 3374
0 0.585 -0.136409 -2.753 -0.405747 -0.370438 3450
0 0.59 -0.135806 -2.8426 -0.391574 -0.356445 3454
0 0.595 -0.13517 -2.92098 -0.376803 -0.342031 3423
0 0.6 -0.1345 -2.98783 -0.362214 -0.327254 3405
0 0.605 -0.133797 -3.04289 -0.347072 -0.312173 3400
0 0.61 -0.133061 -3.08595 -0.331521 -0.296845 3415
0 0.615 -0.132292 -3.11682 -0.315684 -0.281333 3426
0 0.62 -0.13149 -3.13539 -0.299692 -0.265698 3434
0 0.625 -0.130656 -3.14159 -0.283705 -0.25 3458
0 0.63 -0.12979 -3.13539 -0.267809 -0.234302 3456
0 0.635 -0.128892 -3.11682 -0.251904 -0.218667 3470
0 0.64 -0.127962 -3.08595 -0.236269 -0.203155 3484
0 0.645 -0.127 -3.04289 -0.221005 -0.187828 3430
0 0.65 -0.126007 -2.98783 -0.205487 -0.172746 3465
0 0.655 -0.124983 -2.92098 -0.190429 -0.157969 3494
0 0.66 -0.123928 -2.8426 -0.175803 -0.143555 3520
0 0.665 -0.122843 -2.753 -0.161451 -0.129562 3537
0 0.67 -0.121727 -2.65253 -0.147571 -0.116043 3553
0 0.675 -0.120582 -2.5416 -0.134413 -0.103054 3546
0 0.68 -0.119406 -2.42064 -0.121584 -0.090644 3552
0 0.685 -0.118201 -2.29012 -0.109442 -0.0788632 3526
0 0.69 -0.116967 -2.15057 -0.0979485 -0.0677579 3597
0 0.695 -0.115704 -2.00253 -0.0872315 -0.0573717 3579
0 0.7 -0.114412 -1.84658 -0.0773273 -0.0477458 3598
0 0.705 -0.113092 -1.68335 -0.0680956 -0.038918 3608
0 0.71 -0.111745 -1.51347 -0.0598672 -0.0309233 3635
0 0.715 -0.11037 -1.33763 -0.0522945 -0.0237933 3628
0 0.72 -0.108967 -1.1565 -0.0457746 -0.0175559 3647
0 0.725 -0.107538 -0.970806 -0.0400749 -0.0122359 3640
0 0.73 -0.106082 -0.781283 -0.0352154 -0.00785422 3660
0 0.735 -0.1046 -0.588676 -0.0314227 -0.00442819 3704
0 0.74 -0.103092 -0.393746 -0.0285424 -0.00197133 3708
0 0.745 -0.101558 -0.197263 -0.0266061 -0.00049332 3691
0 0.75 -0.1 -5.05072e-07 -0.0257535 -3.21965e-15 3726
0 0.755 -0.0984169 0.197262 -0.0258767 -0.000493315 3762
0 0.76 -0.0968096 0.393745 -0.0269087 -0.00197132 3760
0 0.765 -0.0951783 0.588675 -0.0289879 -0.00442818 3775
0 0.77 -0.0935236 0.781282 -0.0319767 -0.0078542 3851
0 0.775 -0.0918458 0.970805 -0.0359198 -0.0122359 3827
0 0.78 -0.0901454 1.1565 -0.0406251 -0.0175559 3863
0 0.785 -0.0884227 1.33762 -0.0464928 -0.0237932 3846
0 0.79 -0.0866782 1.51347 -0.0531888 -0.0309233 3867
0 0.795 -0.0849122 1.68335 -0.0607343 -0.038918 3908
0 0.8 -0.0831254 1.84658 -0.0690803 -0.0477457 3907
0 0.805 -0.081318 2.00253 -0.0782237 -0.0573717 3921
0 0.81 -0.0794906 2.15057 -0.0880138 -0.0677578 4028
0 0.815 -0.0776436 2.29012 -0.0987363 -0.0788632 4024
0 0.82 -0.0757774 2.42064 -0.110092 -0.090644 4084
0 0.825 -0.0738925 2.5416 -0.122021 -0.103054 4075
0 0.83 -0.0719893 2.65253 -0.134516 -0.116043 4083
0 0.835 -0.0700684 2.753 -0.147458 -0.129562 4161
0 0.84 -0.0681303 2.8426 -0.160974 -0.143555 4119
0 0.845 -0.0661753 2.92098 -0.174891 -0.157969 4232
0 0.85 -0.064204 2.98783 -0.189265 -0.172746 4242
0 0.855 -0.0622168 3.04289 -0.203828 -0.187827 4265
0 0.86 -0.0602143 3.08595 -0.218531 -0.203155 4309
0 0.865 -0.0581969 3.11682 -0.233544 -0.218667 4350
0 0.87 -0.0561652 3.13539 -0.248688 -0.234302 4402
0 0.875 -0.0541196 3.14159 -0.263751 -0.25 4439
0 0.88 -0.0520607 3.13539 -0.278951 -0.265698 4457
0 0.885 -0.0499889 3.11682 -0.294127 -0.281333 4561
0 0.89 -0.0479048 3.08595 -0.308998 -0.296845 4550
0 0.895 -0.0458088 3.04289 -0.323786 -0.312172 4690
0 0.9 -0.0437016 2.98783 -0.338221 -0.327254 4662
0 0.905 -0.0415836 2.92098 -0.352589 -0.342031 4753
0 0.91 -0.0394553 2.8426 -0.366467 -0.356445 4846
0 0.915 -0.0373173 2.753 -0.379781 -0.370438 4856
0 0.92 -0.0351701 2.65253 -0.392777 -0.383957 4957
0 0.925 -0.0330142 2.5416 -0.405275 -0.396946 5058
0 0.93 -0.0308501 2.42064 -0.41705 -0.409356 5097
0 0.935 -0.0286785 2.29012 -0.428219 -0.421137 5206
0 0.94 -0.0264997 2.15057 -0.438788 -0.432242 5326
0 0.945 -0.0243145 2.00253 -0.448628 -0.442628 5415
0 0.95 -0.0221232 1.84658 -0.457661 -0.452254 5557
0 0.955 -0.0199265 1.68335 -0.465834 -0.461082 5681
0 0.96 -0.0177248 1.51347 -0.473191 -0.469077 5857
0 0.965 -0.0155188 1.33763 -0.479639 -0.476207 5970
0 0.97 -0.0133089 1.1565 -0.485186 -0.482444 6149
0 0.975 -0.0110958 0.970806 -0.489933 -0.487764 6419
0 0.98 -0.00887993 0.781283 -0.493509 -0.492146 6664
0 0.985 -0.00666187 0.588676 -0.496011 -0.495572 7008
0 0.99 -0.00444216 0.393747 -0.49712 -0.498029 7362
0 0.995 -0.00222136 0.197263 -0.496657 -0.499507 5814
0 1 -7.57874e-09 6.73429e-07 -0.499832 -0.5 1326
0.005 0 -0.197262 0.00222135 -0.502011 -0.499507 5814
0.005 0.005 -0.199483 -0.195041 -0.498844 -0.499013 6905
0.005 0.01 -0.201704 -0.391526 -0.495956 -0.497535 8463
0.005 0.015 -0.203923 -0.586457 -0.494948 -0.495079 9535
0.005 0.02 -0.206141 -0.779065 -0.49277 -0.491652 9130
0.005 0.025 -0.208357 -0.968591 -0.489353 -0.487271 8805
0.005 0.03 -0.21057 -1.15429 -0.484809 -0.481951 8448
0.005 0.035 -0.212779 -1.33542 -0.479221 -0.475713 8078
0.005 0.04 -0.214985 -1.51127 -0.472741 -0.468583 7918
0.005 0.045 -0.217186 -1.68115 -0.465413 -0.460589 7700
0.005 0.05 -0.219383 -1.84439 -0.457256 -0.451761 7523
0.005 0.055 -0.221574 -2.00034 -0.448268 -0.442135 7350
0.005 0.06 -0.223759 -2.14839 -0.438434 -0.431749 7196
0.005 0.065 -0.225937 -2.28795 -0.427849 -0.420643 7024
0.005 0.07 -0.228109 -2.41847 -0.416618 -0.408863 6920
0.005 0.075 -0.230272 -2.53944 -0.404803 -0.396453 6822
0.005 0.08 -0.232428 -2.65038 -0.392396 -0.383463 6729
0.005 0.085 -0.234575 -2.75086 -0.379378 -0.369945 6540
0.005 0.09 -0.236713 -2.84046 -0.365948 -0.355952 6457
0.005 0.095 -0.238841 -2.91886 -0.3521 -0.341538 6446
0.005 0.1 -0.240958 -2.98572 -0.337761 -0.326761 6297
0.005 0.105 -0.243065 -3.04079 -0.323221 -0.311679 6241
0.005 0.11 -0.245161 -3.08386 -0.30844 -0.296352 6148
0.005 0.115 -0.247245 -3.11474 -0.293477 -0.28084 6055
0.005 0.12 -0.249316 -3.13333 -0.278357 -0.265204 6038
0.005 0.125 -0.251375 -3.13954 -0.263097 -0.249507 5912
0.005 0.13 -0.253421 -3.13335 -0.247893 -0.233809 5892
0.005 0.135 -0.255452 -3.1148 -0.232772 -0.218173 5821
0.005 0.14 -0.257469 -3.08394 -0.21782 -0.202661 5752
0.005 0.145 -0.259471 -3.0409 -0.202945 -0.187334 5709
0.005 0.15 -0.261458 -2.98585 -0.188295 -0.172252 5680
0.005 0.155 -0.263429 -2.91902 -0.174021 -0.157476 5620
0.005 0.16 -0.265384 -2.84065 -0.160115 -0.143062 5549
0.005 0.165 -0.267322 -2.75107 -0.146575 -0.129068 5518
0.005 0.17 -0.269243 -2.65062 -0.133482 -0.11555 5473
0.005 0.175 -0.271146 -2.53971 -0.12092 -0.10256 5403
0.005 0.18 -0.27303 -2.41876 -0.10899 -0.0901507 5383
0.005 0.185 -0.274896 -2.28827 -0.0976821 -0.0783699 5325
0.005 0.19 -0.276743 -2.14873 -0.0870197 -0.0672645 5295
0.005 0.195 -0.27857 -2.00071 -0.0770601 -0.0568784 5278
0.005 0.2 -0.280377 -1.84478 -0.0678248 -0.0472524 5229
0.005 0.205 -0.282164 -1.68157 -0.0594073 -0.0384247 5206
0.005 0.21 -0.28393 -1.51172 -0.0518517 -0.03043 5156
0.005 0.215 -0.285674 -1.33589 -0.0451844 -0.0232999 5086
0.005 0.22 -0.287396 -1.15479 -0.0392908 -0.0170626 5064
0.005 0.225 -0.289097 -0.969117 -0.0343857 -0.0117426 5062
0.005 0.23 -0.290774 -0.779616 -0.0304534 -0.00736089 5039
0.005 0.235 -0.292429 -0.587033 -0.0274465 -0.00393487 5031
0.005 0.24 -0.29406 -0.392127 -0.0253225 -0.00147801 5025
0.005 0.245 -0.295667 -0.195667 -0.0242639 -8.41233e-10 4975
0.005 0.25 -0.29725 0.00157056 -0.0242087 0.000493318 4906
0.005 0.255 -0.298808 0.198808 -0.0249615 8.41232e-10 4923
0.005 0.26 -0.300341 0.395266 -0.0268013 -0.00147801 4903
0.005 0.265 -0.301849 0.590171 -0.0296271 -0.00393487 4863
0.005 0.27 -0.303331 0.782751 -0.0334562 -0.00736089 4821
0.005 0.275 -0.304787 0.972248 -0.0381403 -0.0117425 4851
0.005 0.28 -0.306216 1.15791 -0.0437641 -0.0170626 4814
0.005 0.285 -0.307618 1.33901 -0.0503966 -0.0232999 4776
0.005 0.29 -0.308993 1.51484 -0.0579622 -0.03043 4738
0.005 0.295 -0.310341 1.68468 -0.0661023 -0.0384247 4753
0.005 0.3 -0.31166 1.84789 -0.0752502 -0.0472524 4726
0.005 0.305 -0.312952 2.0038 -0.0852427 -0.0568784 4727
0.005 0.31 -0.314215 2.15182 -0.0959798 -0.0672645 4670
0.005 0.315 -0.315449 2.29134 -0.10732 -0.0783699 4658
0.005 0.32 -0.316653 2.42183 -0.119282 -0.0901507 4712
0.005 0.325 -0.317829 2.54276 -0.132019 -0.10256 4672
0.005 0.33 -0.318975 2.65367 -0.145283 -0.11555 4625
0.005 0.335 -0.32009 2.7541 -0.159122 -0.129068 4627
0.005 0.34 -0.321175 2.84367 -0.173504 -0.143062 4593
0.005 0.345 -0.32223 2.92202 -0.188089 -0.157476 4608
0.005 0.35 -0.323254 2.98884 -0.202954 -0.172252 4607
0.005 0.355 -0.324247 3.04387 -0.218322 -0.187334 4601
0.005 0.36 -0.325208 3.08689 -0.233892 -0.202661 4592
0.005 0.365 -0.326138 3.11773 -0.249622 -0.218173 4585
0.005 0.37 -0.327036 3.13628 -0.265555 -0.233809 4539
0.005 0.375 -0.327902 3.14244 -0.281415 -0.249507 4497
0.005 0.38 -0.328736 3.13621 -0.297294 -0.265204 4519
0.005 0.385 -0.329538 3.11761 -0.313108 -0.28084 4525
0.005 0.39 -0.330306 3.0867 -0.328699 -0.296352 4538
0.005 0.395 -0.331042 3.04361 -0.344196 -0.311679 4537
0.005 0.4 -0.331745 2.98852 -0.359546 -0.326761 4503
0.005 0.405 -0.332415 2.92163 -0.37441 -0.341538 4508
0.005 0.41 -0.333052 2.84322 -0.388942 -0.355951 4459
0.005 0.415 -0.333654 2.75358 -0.403169 -0.369945 4453
0.005 0.42 -0.334224 2.65309 -0.416915 -0.383463 4436
0.005 0.425 -0.334759 2.54212 -0.43001 -0.396453 4452
0.005 0.43 -0.335261 2.42112 -0.442471 -0.408863 4449
0.005 0.435 -0.335728 2.29057 -0.454391 -0.420643 4437
0.005 0.44 -0.336161 2.15098 -0.465589 -0.431749 4425
0.005 0.445 -0.336561 2.00291 -0.476089 -0.442135 4437
0.005 0.45 -0.336925 1.84693 -0.485707 -0.451761 4444
0.005 0.455 -0.337255 1.68366 -0.49458 -0.460589 4434
0.005 0.46 -0.337551 1.51375 -0.502635 -0.468583 4434
0.005 0.465 -0.337812 1.33787 -0.509853 -0.475713 4452
0.005 0.47 -0.338039 1.15671 -0.516221 -0.481951 4481
0.005 0.475 -0.33823 0.97098 -0.521592 -0.487271 4451
0.005 0.48 -0.338387 0.781422 -0.526006 -0.491652 4430
0.005 0.485 -0.338509 0.588781 -0.529377 -0.495079 4457
0.005 0.49 -0.338596 0.393816 -0.5319 -0.497535 4433
0.005 0.495 -0.338649 0.197297 -0.533361 -0.499013 4439
0.005 0.5 -0.338666 3.36774e-07 -0.53391 -0.499507 4418
0.005 0.505 -0.338649 -0.197297 -0.533366 -0.499013 4439
0.005 0.51 -0.338596 -0.393815 -0.531907 -0.497535 4433
0.005 0.515 -0.338509 -0.58878 -0.529384 -0.495079 4455
0.005 0.52 -0.338387 -0.781421 -0.526006 -0.491652 4432
0.005 0.525 -0.33823 -0.970979 -0.52159 -0.487271 4451
0.005 0.53 -0.338039 -1.15671 -0.516218 -0.481951 4481
0.005 0.535 -0.337812 -1.33787 -0.50986 -0.475713 4452
0.005 0.54 -0.337551 -1.51375 -0.502646 -0.468583 4434
0.005 0.545 -0.337255 -1.68366 -0.494584 -0.460589 4434
0.005 0.55 -0.336925 -1.84693 -0.485713 -0.451761 4442
0.005 0.555 -0.336561 -2.00291 -0.476102 -0.442135 4440
0.005 0.56 -0.336161 -2.15098 -0.4656 -0.431749 4425
0.005 0.565 -0.335728 -2.29057 -0.4544 -0.420643 4437
0.005 0.57 -0.335261 -2.42112 -0.442474 -0.408863 4449
0.005 0.575 -0.334759 -2.54212 -0.430016 -0.396453 4454
0.005 0.58 -0.334224 -2.65309 -0.416913 -0.383463 4436
0.005 0.585 -0.333654 -2.75358 -0.403171 -0.369945 4451
0.005 0.59 -0.333052 -2.84322 -0.388945 -0.355952 4461
0.005 0.595 -0.332415 -2.92163 -0.374417 -0.341538 4508
0.005 0.6 -0.331745 -2.98852 -0.359552 -0.326761 4503
0.005 0.605 -0.331042 -3.04361 -0.344202 -0.311679 4537
0.005 0.61 -0.330306 -3.0867 -0.32871 -0.296352 4538
0.005 0.615 -0.329538 -3.11761 -0.313117 -0.28084 4525
0.005 0.62 -0.328736 -3.13621 -0.297301 -0.265204 4517
0.005 0.625 -0.327902 -3.14244 -0.281434 -0.249507 4498
0.005 0.63 -0.327036 -3.13628 -0.265566 -0.233809 4539
0.005 0.635 -0.326138 -3.11773 -0.249633 -0.218173 4585
0.005 0.64 -0.325208 -3.08689 -0.233905 -0.202661 4592
0.005 0.645 -0.324247 -3.04387 -0.218333 -0.187334 4601
0.005 0.65 -0.323254 -2.98884 -0.202964 -0.172252 4607
0.005 0.655 -0.32223 -2.92202 -0.188106 -0.157476 4606
0.005 0.66 -0.321175 -2.84367 -0.173528 -0.143062 4595
0.005 0.665 -0.32009 -2.7541 -0.159146 -0.129068 4627
0.005 0.67 -0.318975 -2.65367 -0.145307 -0.11555 4625
0.005 0.675 -0.317829 -2.54276 -0.132041 -0.10256 4672
0.005 0.68 -0.316653 -2.42183 -0.119297 -0.0901507 4712
0.005 0.685 -0.315449 -2.29134 -0.107339 -0.0783699 4658
0.005 0.69 -0.314215 -2.15182 -0.0959999 -0.0672645 4668
0.005 0.695 -0.312952 -2.0038 -0.0852605 -0.0568784 4729
0.005 0.7 -0.31166 -1.84789 -0.0752773 -0.0472525 4726
0.005 0.705 -0.310341 -1.68468 -0.0661209 -0.0384247 4753
0.005 0.71 -0.308993 -1.51484 -0.0579841 -0.03043 4737
0.005 0.715 -0.307618 -1.33901 -0.050419 -0.0232999 4776
0.005 0.72 -0.306216 -1.15791 -0.0437833 -0.0170626 4814
0.005 0.725 -0.304787 -0.972249 -0.0381622 -0.0117426 4849
0.005 0.73 -0.303331 -0.782752 -0.0334805 -0.0073609 4823
0.005 0.735 -0.301849 -0.590171 -0.029654 -0.00393488 4863
0.005 0.74 -0.300341 -0.395267 -0.0268187 -0.00147801 4903
0.005 0.745 -0.298808 -0.198809 -0.024977 -2.5237e-09 4923
0.005 0.75 -0.29725 -0.00157124 -0.0242305 0.000493318 4906
0.005 0.755 -0.295667 0.195667 -0.0242863 2.5237e-09 4975
0.005 0.76 -0.29406 0.392126 -0.0253455 -0.001478 5023
0.005 0.765 -0.292429 0.587032 -0.0274691 -0.00393486 5033
0.005 0.77 -0.290774 0.779616 -0.0304749 -0.00736088 5038
0.005 0.775 -0.289097 0.969116 -0.0344127 -0.0117425 5062
0.005 0.78 -0.287396 1.15479 -0.0393254 -0.0170625 5064
0.005 0.785 -0.285674 1.33589 -0.0452069 -0.0232999 5086
0.005 0.79 -0.28393 1.51172 -0.05188 -0.03043 5156
0.005 0.795 -0.282164 1.68157 -0.0594393 -0.0384247 5204
0.005 0.8 -0.280377 1.84478 -0.0678438 -0.0472524 5231
0.005 0.805 -0.27857 2.00071 -0.0770868 -0.0568783 5278
0.005 0.81 -0.276743 2.14873 -0.0870481 -0.0672645 5295
0.005 0.815 -0.274896 2.28827 -0.0977032 -0.0783699 5325
0.005 0.82 -0.27303 2.41876 -0.109015 -0.0901507 5382
0.005 0.825 -0.271146 2.53971 -0.120936 -0.10256 5403
0.005 0.83 -0.269243 2.65062 -0.133502 -0.11555 5471
0.005 0.835 -0.267322 2.75107 -0.146597 -0.129068 5520
0.005 0.84 -0.265384 2.84065 -0.160135 -0.143062 5549
0.005 0.845 -0.263429 2.91902 -0.174045 -0.157476 5620
0.005 0.85 -0.261458 2.98585 -0.188316 -0.172252 5680
0.005 0.855 -0.259471 3.0409 -0.202965 -0.187334 5709
0.005 0.86 -0.257469 3.08394 -0.217839 -0.202661 5752
0.005 0.865 -0.255452 3.1148 -0.232791 -0.218173 5819
0.005 0.87 -0.253421 3.13335 -0.247907 -0.233809 5894
0.005 0.875 -0.251375 3.13954 -0.263111 -0.249507 5912
0.005 0.88 -0.249316 3.13333 -0.278379 -0.265204 6038
0.005 0.885 -0.247245 3.11474 -0.293495 -0.28084 6055
0.005 0.89 -0.245161 3.08386 -0.308451 -0.296352 6148
0.005 0.895 -0.243065 3.04079 -0.323233 -0.311679 6241
0.005 0.9 -0.240958 2.98572 -0.337776 -0.326761 6296
0.005 0.905 -0.238841 2.91886 -0.352114 -0.341538 6448
0.005 0.91 -0.236713 2.84047 -0.365968 -0.355951 6457
0.005 0.915 -0.234575 2.75086 -0.379391 -0.369945 6540
0.005 0.92 -0.232428 2.65038 -0.392403 -0.383463 6729
0.005 0.925 -0.230272 2.53944 -0.404803 -0.396453 6822
0.005 0.93 -0.228109 2.41847 -0.416616 -0.408863 6920
0.005 0.935 -0.225937 2.28795 -0.42785 -0.420643 7022
0.005 0.94 -0.223759 2.14839 -0.438437 -0.431749 7198
0.005 0.945 -0.221574 2.00034 -0.448271 -0.442135 7350
0.005 0.95 -0.219383 1.84439 -0.457259 -0.451761 7523
0.005 0.955 -0.217186 1.68115 -0.465423 -0.460589 7701
0.005 0.96 -0.214985 1.51127 -0.472745 -0.468583 7918
0.005 0.965 -0.212779 1.33542 -0.479219 -0.475713 8078
0.005 0.97 -0.21057 1.15429 -0.484817 -0.481951 8446
0.005 0.975 -0.208357 0.968592 -0.489361 -0.487271 8807
0.005 0.98 -0.206141 0.779066 -0.492779 -0.491652 9130
0.005 0.985 -0.203923 0.586457 -0.494968 -0.495078 9535
0.005 0.99 -0.201704 0.391526 -0.495963 -0.497535 8463
0.005 0.995 -0.199483 0.195042 -0.498842 -0.499013 6904
0.005 1 -0.197262 -0.00222068 -0.502009 -0.499507 5814
0.01 0 -0.393746 0.00444215 -0.498604 -0.498029 7362
0.01 0.005 -0.395966 -0.192821 -0.498781 -0.497535 8463
0.01 0.01 -0.398186 -0.389306 -0.495893 -0.496057 7527
0.01 0.015 -0.400405 -0.584239 -0.492364 -0.4936 8694
0.01 0.02 -0.402621 -0.776849 -0.490107 -0.490174 9497
0.01 0.025 -0.404836 -0.966377 -0.486897 -0.485793 9140
0.01 0.03 -0.407048 -1.15207 -0.482543 -0.480473 8805
0.01 0.035 -0.409257 -1.33321 -0.477107 -0.474235 8445
0.01 0.04 -0.411462 -1.50907 -0.470613 -0.467105 8114
0.01 0.045 -0.413663 -1.67895 -0.463286 -0.459111 7914
0.01 0.05 -0.415858 -1.84219 -0.455128 -0.450283 7703
0.01 0.055 -0.418048 -1.99815 -0.446141 -0.440657 7548
0.01 0.06 -0.420233 -2.1462 -0.436366 -0.430271 7358
0.01 0.065 -0.42241 -2.28577 -0.425831 -0.419165 7161
0.01 0.07 -0.424581 -2.4163 -0.414586 -0.407385 7040
0.01 0.075 -0.426744 -2.53728 -0.402788 -0.394975 6922
0.01 0.08 -0.428899 -2.64823 -0.390359 -0.381985 6837
0.01 0.085 -0.431045 -2.74871 -0.377375 -0.368467 6697
0.01 0.09 -0.433182 -2.83833 -0.363878 -0.354474 6558
0.01 0.095 -0.435309 -2.91673 -0.350058 -0.34006 6520
0.01 0.1 -0.437426 -2.98361 -0.335799 -0.325283 6402
0.01 0.105 -0.439532 -3.03869 -0.321184 -0.310201 6278
0.01 0.11 -0.441627 -3.08177 -0.306408 -0.294874 6285
0.01 0.115 -0.44371 -3.11266 -0.291402 -0.279362 6121
0.01 0.12 -0.445781 -3.13126 -0.276281 -0.263726 6134
0.01 0.125 -0.447839 -3.13749 -0.261045 -0.248029 6047
0.01 0.13 -0.449883 -3.13132 -0.245898 -0.232331 5908
0.01 0.135 -0.451914 -3.11277 -0.230732 -0.216695 5887
0.01 0.14 -0.453931 -3.08193 -0.215701 -0.201183 5826
0.01 0.145 -0.455932 -3.0389 -0.200862 -0.185856 5777
0.01 0.15 -0.457918 -2.98387 -0.186245 -0.170774 5745
0.01 0.155 -0.459889 -2.91705 -0.171993 -0.155998 5662
0.01 0.16 -0.461843 -2.83871 -0.158034 -0.141584 5629
0.01 0.165 -0.46378 -2.74914 -0.144438 -0.12759 5582
0.01 0.17 -0.4657 -2.64871 -0.131388 -0.114072 5579
0.01 0.175 -0.467602 -2.53781 -0.118873 -0.101082 5518
0.01 0.18 -0.469486 -2.41689 -0.106906 -0.0886727 5431
0.01 0.185 -0.471351 -2.28641 -0.095579 -0.0768919 5419
0.01 0.19 -0.473197 -2.14689 -0.0848994 -0.0657865 5397
0.01 0.195 -0.475024 -1.99889 -0.0749277 -0.0554004 5330
0.01 0.2 -0.47683 -1.84299 -0.0657213 -0.0457744 5323
0.01 0.205 -0.478616 -1.6798 -0.0573157 -0.0369467 5306
0.01 0.21 -0.480381 -1.50996 -0.0497642 -0.028952 5209
0.01 0.215 -0.482125 -1.33416 -0.0430399 -0.0218219 5185
0.01 0.22 -0.483847 -1.15307 -0.0371742 -0.0155846 5147
0.01 0.225 -0.485546 -0.967428 -0.0322247 -0.0102646 5106
0.01 0.23 -0.487223 -0.77795 -0.028234 -0.00588289 5089
0.01 0.235 -0.488877 -0.58539 -0.0252648 -0.00245687 5082
0.01 0.24 -0.490508 -0.390508 -0.0232993 -1.67915e-09 5046
0.01 0.245 -0.492114 -0.194072 -0.0220619 0.00147801 5021
0.01 0.25 -0.493697 0.00314091 -0.021927 0.00197132 5006
0.01 0.255 -0.495254 0.200353 -0.0228147 0.00147801 5007
0.01 0.26 -0.496787 0.396787 -0.0246615 1.67915e-09 4958
0.01 0.265 -0.498294 0.591665 -0.0274273 -0.00245686 4955
0.01 0.27 -0.499775 0.78422 -0.0312242 -0.00588288 4925
0.01 0.275 -0.501231 0.97369 -0.036047 -0.0102645 4879
0.01 0.28 -0.502659 1.15933 -0.0416687 -0.0155845 4815
0.01 0.285 -0.504061 1.3404 -0.0481622 -0.0218219 4859
0.01 0.29 -0.505436 1.5162 -0.0556188 -0.028952 4845
0.01 0.295 -0.506783 1.68602 -0.0639661 -0.0369467 4829
0.01 0.3 -0.508102 1.84919 -0.0731621 -0.0457744 4778
0.01 0.305 -0.509393 2.00508 -0.0829905 -0.0554004 4795
0.01 0.31 -0.510655 2.15306 -0.0936744 -0.0657865 4795
0.01 0.315 -0.511889 2.29256 -0.10507 -0.0768919 4733
0.01 0.32 -0.513093 2.42302 -0.117183 -0.0886727 4727
0.01 0.325 -0.514268 2.54392 -0.12999 -0.101082 4665
0.01 0.33 -0.515413 2.6548 -0.143139 -0.114072 4686
0.01 0.335 -0.516528 2.7552 -0.156818 -0.12759 4692
0.01 0.34 -0.517613 2.84474 -0.171063 -0.141584 4664
0.01 0.345 -0.518668 2.92306 -0.185821 -0.155998 4681
0.01 0.35 -0.519691 2.98985 -0.200951 -0.170774 4633
0.01 0.355 -0.520684 3.04485 -0.21628 -0.185856 4582
0.01 0.36 -0.521645 3.08784 -0.231755 -0.201183 4610
0.01 0.365 -0.522574 3.11865 -0.247301 -0.216695 4616
0.01 0.37 -0.523472 3.13716 -0.263133 -0.232331 4624
0.01 0.375 -0.524338 3.14329 -0.279078 -0.248029 4612
0.01 0.38 -0.525171 3.13703 -0.294947 -0.263726 4549
0.01 0.385 -0.525972 3.11839 -0.310894 -0.279362 4546
0.01 0.39 -0.526741 3.08745 -0.326749 -0.294874 4506
0.01 0.395 -0.527477 3.04433 -0.342154 -0.310201 4517
0.01 0.4 -0.528179 2.9892 -0.357334 -0.325283 4521
0.01 0.405 -0.528849 2.92229 -0.372229 -0.34006 4552
0.01 0.41 -0.529485 2.84384 -0.386676 -0.354473 4559
0.01 0.415 -0.530088 2.75417 -0.400791 -0.368467 4534
0.01 0.42 -0.530657 2.65364 -0.414437 -0.381985 4519
0.01 0.425 -0.531192 2.54264 -0.427692 -0.394975 4529
0.01 0.43 -0.531693 2.42161 -0.44017 -0.407385 4517
0.01 0.435 -0.532161 2.29102 -0.452078 -0.419165 4504
0.01 0.44 -0.532594 2.1514 -0.463295 -0.430271 4467
0.01 0.445 -0.532993 2.00329 -0.473904 -0.440657 4477
0.01 0.45 -0.533357 1.84728 -0.483793 -0.450283 4486
0.01 0.455 -0.533687 1.68398 -0.49251 -0.459111 4457
0.01 0.46 -0.533983 1.51403 -0.500613 -0.467105 4441
0.01 0.465 -0.534244 1.33811 -0.507838 -0.474235 4431
0.01 0.47 -0.53447 1.15692 -0.514163 -0.480473 4452
0.01 0.475 -0.534662 0.971154 -0.519558 -0.485793 4457
0.01 0.48 -0.534819 0.781562 -0.524017 -0.490174 4492
0.01 0.485 -0.534941 0.588885 -0.527411 -0.4936 4476
0.01 0.49 -0.535028 0.393886 -0.529802 -0.496057 4411
0.01 0.495 -0.53508 0.197332 -0.531336 -0.497535 4430
0.01 0.5 -0.535098 3.36834e-07 -0.531876 -0.498029 4458
0.01 0.505 -0.53508 -0.197332 -0.53133 -0.497535 4430
0.01 0.51 -0.535028 -0.393885 -0.5298 -0.496057 4411
0.01 0.515 -0.534941 -0.588885 -0.527412 -0.4936 4474
0.01 0.52 -0.534819 -0.781561 -0.52402 -0.490174 4494
0.01 0.525 -0.534662 -0.971154 -0.519566 -0.485793 4457
0.01 0.53 -0.53447 -1.15692 -0.514176 -0.480473 4452
0.01 0.535 -0.534244 -1.33811 -0.50784 -0.474235 4431
0.01 0.54 -0.533983 -1.51403 -0.500616 -0.467105 4441
0.01 0.545 -0.533687 -1.68398 -0.492514 -0.459111 4457
0.01 0.55 -0.533357 -1.84728 -0.483798 -0.450283 4484
0.01 0.555 -0.532993 -2.00329 -0.473906 -0.440657 4479
0.01 0.56 -0.532594 -2.1514 -0.463299 -0.430271 4467
0.01 0.565 -0.532161 -2.29102 -0.452088 -0.419165 4504
0.01 0.57 -0.531693 -2.42161 -0.440181 -0.407385 4517
0.01 0.575 -0.531192 -2.54264 -0.427697 -0.394975 4529
0.01 0.58 -0.530657 -2.65364 -0.414452 -0.381985 4519
0.01 0.585 -0.530088 -2.75417 -0.400798 -0.368467 4532
0.01 0.59 -0.529485 -2.84384 -0.386689 -0.354474 4561
0.01 0.595 -0.528849 -2.92228 -0.372241 -0.34006 4552
0.01 0.6 -0.528179 -2.9892 -0.35735 -0.325283 4521
0.01 0.605 -0.527477 -3.04433 -0.342172 -0.310201 4517
0.01 0.61 -0.526741 -3.08745 -0.326765 -0.294874 4506
0.01 0.615 -0.525972 -3.11839 -0.310909 -0.279362 4546
0.01 0.62 -0.525171 -3.13703 -0.294962 -0.263726 4547
0.01 0.625 -0.524338 -3.14329 -0.279095 -0.248029 4614
0.01 0.63 -0.523472 -3.13716 -0.263151 -0.232331 4624
0.01 0.635 -0.522574 -3.11865 -0.247318 -0.216695 4616
0.01 0.64 -0.521645 -3.08784 -0.231773 -0.201183 4610
0.01 0.645 -0.520684 -3.04485 -0.216299 -0.185856 4582
0.01 0.65 -0.519691 -2.98985 -0.200968 -0.170774 4633
0.01 0.655 -0.518668 -2.92306 -0.185831 -0.155998 4679
0.01 0.66 -0.517613 -2.84474 -0.171076 -0.141584 4666
0.01 0.665 -0.516528 -2.7552 -0.156829 -0.12759 4692
0.01 0.67 -0.515413 -2.6548 -0.143152 -0.114072 4686
0.01 0.675 -0.514268 -2.54392 -0.130005 -0.101082 4665
0.01 0.68 -0.513093 -2.42302 -0.117195 -0.0886727 4727
0.01 0.685 -0.511889 -2.29256 -0.105088 -0.0768919 4733
0.01 0.69 -0.510655 -2.15307 -0.0936904 -0.0657865 4793
0.01 0.695 -0.509393 -2.00508 -0.0830083 -0.0554004 4797
0.01 0.7 -0.508102 -1.84919 -0.0731901 -0.0457744 4778
0.01 0.705 -0.506783 -1.68602 -0.0639916 -0.0369467 4829
0.01 0.71 -0.505436 -1.5162 -0.055639 -0.028952 4845
0.01 0.715 -0.504061 -1.3404 -0.0481849 -0.0218219 4859
0.01 0.72 -0.502659 -1.15933 -0.0416911 -0.0155846 4815
0.01 0.725 -0.501231 -0.973691 -0.0360657 -0.0102646 4877
0.01 0.73 -0.499775 -0.78422 -0.0312416 -0.00588289 4927
0.01 0.735 -0.498294 -0.591666 -0.0274492 -0.00245687 4955
0.01 0.74 -0.496787 -0.396787 -0.0246789 -5.03744e-09 4958
0.01 0.745 -0.495254 -0.200354 -0.0228317 0.001478 5007
0.01 0.75 -0.493697 -0.00314158 -0.0219413 0.00197132 5006
0.01 0.755 -0.492114 0.194072 -0.0220875 0.00147801 5021