TITLE="Pressure integrated from Omni2D"
VARIABLES = "X","Y","Dudt","DvDt","Pcal","Preal","Count"
ZONE I=201, J=201
0 0 -0.314159 -0.314159 -0.813987 -0.5 1326
0 0.005 -0.314159 -0.511422 -0.811878 -0.499507 5814
0 0.01 -0.314159 -0.707905 -0.808885 -0.498029 7362
0 0.015 -0.314159 -0.902835 -0.804801 -0.495572 7008
0 0.02 -0.314159 -1.09544 -0.799853 -0.492146 6664
0 0.025 -0.314159 -1.28496 -0.793945 -0.487764 6417
0 0.03 -0.314159 -1.47066 -0.786987 -0.482444 6151
0 0.035 -0.314159 -1.65178 -0.779184 -0.476207 5970
0 0.04 -0.314159 -1.82763 -0.770547 -0.469077 5856
0 0.045 -0.314159 -1.99751 -0.760979 -0.461082 5681
0 0.05 -0.314159 -2.16074 -0.750558 -0.452254 5558
0 0.055 -0.314159 -2.31669 -0.739336 -0.442628 5415
0 0.06 -0.314159 -2.46473 -0.727375 -0.432242 5324
0 0.065 -0.314159 -2.60428 -0.714745 -0.421137 5208
0 0.07 -0.314159 -2.7348 -0.701377 -0.409356 5097
0 0.075 -0.314159 -2.85576 -0.68743 -0.396946 5058
0 0.08 -0.314159 -2.96669 -0.672876 -0.383957 4957
0 0.085 -0.314159 -3.06716 -0.657778 -0.370438 4856
0 0.09 -0.314159 -3.15676 -0.642222 -0.356445 4846
0 0.095 -0.314159 -3.23514 -0.626254 -0.342031 4751
0 0.1 -0.314159 -3.30199 -0.609912 -0.327254 4664
0 0.105 -0.314159 -3.35705 -0.593235 -0.312172 4690
0 0.11 -0.314159 -3.40011 -0.576356 -0.296845 4550
0 0.115 -0.314159 -3.43098 -0.559268 -0.281333 4561
0 0.12 -0.314159 -3.44955 -0.542059 -0.265698 4457
0 0.125 -0.314159 -3.45575 -0.524804 -0.25 4439
0 0.13 -0.314159 -3.44955 -0.507552 -0.234302 4400
0 0.135 -0.314159 -3.43098 -0.490355 -0.218667 4352
0 0.14 -0.314159 -3.40011 -0.473269 -0.203155 4309
0 0.145 -0.314159 -3.35705 -0.456367 -0.187828 4265
0 0.15 -0.314159 -3.30199 -0.439719 -0.172746 4242
0 0.155 -0.314159 -3.23514 -0.423384 -0.157969 4232
0 0.16 -0.314159 -3.15676 -0.407407 -0.143555 4119
0 0.165 -0.314159 -3.06716 -0.391846 -0.129562 4159
0 0.17 -0.314159 -2.96669 -0.376762 -0.116043 4085
0 0.175 -0.314159 -2.85576 -0.362206 -0.103054 4075
0 0.18 -0.314159 -2.7348 -0.348228 -0.090644 4084
0 0.185 -0.314159 -2.60428 -0.33488 -0.0788632 4024
0 0.19 -0.314159 -2.46473 -0.322206 -0.0677579 4028
0 0.195 -0.314159 -2.31669 -0.310252 -0.0573717 3921
0 0.2 -0.314159 -2.16074 -0.299059 -0.0477458 3905
0 0.205 -0.314159 -1.99751 -0.288663 -0.038918 3910
0 0.21 -0.314159 -1.82763 -0.2791 -0.0309233 3867
0 0.215 -0.314159 -1.65178 -0.270402 -0.0237932 3846
0 0.22 -0.314159 -1.47066 -0.262596 -0.0175559 3863
0 0.225 -0.314159 -1.28496 -0.255707 -0.0122359 3827
0 0.23 -0.314159 -1.09544 -0.249756 -0.00785421 3851
0 0.235 -0.314159 -0.902835 -0.24476 -0.00442819 3772
0 0.24 -0.314159 -0.707905 -0.240734 -0.00197133 3762
0 0.245 -0.314159 -0.511422 -0.237686 -0.000493319 3762
0 0.25 -0.314159 -0.314159 -0.235622 -3.60822e-16 3726
0 0.255 -0.314159 -0.116897 -0.234544 -0.000493317 3691
0 0.26 -0.314159 0.0795865 -0.234451 -0.00197132 3708
0 0.265 -0.314159 0.274516 -0.235337 -0.00442818 3704
0 0.27 -0.314159 0.467123 -0.23719 -0.00785421 3658
0 0.275 -0.314159 0.656646 -0.239999 -0.0122359 3642
0 0.28 -0.314159 0.842338 -0.243746 -0.0175559 3647
0 0.285 -0.314159 1.02347 -0.248412 -0.0237932 3627
0 0.29 -0.314159 1.19931 -0.253969 -0.0309233 3635
0 0.295 -0.314159 1.36919 -0.26039 -0.038918 3608
0 0.3 -0.314159 1.53242 -0.267644 -0.0477457 3598
0 0.305 -0.314159 1.68837 -0.275696 -0.0573717 3577
0 0.31 -0.314159 1.83641 -0.284508 -0.0677578 3599
0 0.315 -0.314159 1.97596 -0.294039 -0.0788632 3526
0 0.32 -0.314159 2.10648 -0.304245 -0.090644 3552
0 0.325 -0.314159 2.22744 -0.31508 -0.103054 3546
0 0.33 -0.314159 2.33838 -0.326494 -0.116043 3553
0 0.335 -0.314159 2.43884 -0.338438 -0.129562 3537
0 0.34 -0.314159 2.52844 -0.350857 -0.143555 3520
0 0.345 -0.314159 2.60682 -0.363696 -0.157969 3496
0 0.35 -0.314159 2.67367 -0.376894 -0.172746 3465
0 0.355 -0.314159 2.72873 -0.390404 -0.187828 3430
0 0.36 -0.314159 2.77179 -0.404151 -0.203155 3484
0 0.365 -0.314159 2.80266 -0.418091 -0.218667 3470
0 0.37 -0.314159 2.82123 -0.432151 -0.234302 3456
0 0.375 -0.314159 2.82743 -0.446272 -0.25 3456
0 0.38 -0.314159 2.82123 -0.460391 -0.265698 3435
0 0.385 -0.314159 2.80266 -0.474446 -0.281333 3426
0 0.39 -0.314159 2.77179 -0.488391 -0.296845 3415
0 0.395 -0.314159 2.72873 -0.502138 -0.312172 3400
0 0.4 -0.314159 2.67367 -0.51564 -0.327254 3405
0 0.405 -0.314159 2.60682 -0.528852 -0.342031 3423
0 0.41 -0.314159 2.52844 -0.541688 -0.356445 3454
0 0.415 -0.314159 2.43884 -0.554096 -0.370438 3452
0 0.42 -0.314159 2.33838 -0.566042 -0.383957 3376
0 0.425 -0.314159 2.22744 -0.577456 -0.396946 3386
0 0.43 -0.314159 2.10648 -0.588304 -0.409356 3410
0 0.435 -0.314159 1.97596 -0.598506 -0.421137 3394
0 0.44 -0.314159 1.83641 -0.608039 -0.432242 3416
0 0.445 -0.314159 1.68837 -0.616843 -0.442628 3353
0 0.45 -0.314159 1.53242 -0.624897 -0.452254 3341
0 0.455 -0.314159 1.36919 -0.632144 -0.461082 3379
0 0.46 -0.314159 1.19931 -0.638574 -0.469077 3348
0 0.465 -0.314159 1.02347 -0.64412 -0.476207 3357
0 0.47 -0.314159 0.842338 -0.64881 -0.482444 3363
0 0.475 -0.314159 0.656647 -0.652532 -0.487764 3343
0 0.48 -0.314159 0.467123 -0.65534 -0.492146 3309
0 0.485 -0.314159 0.274517 -0.6572 -0.495572 3336
0 0.49 -0.314159 0.079587 -0.658099 -0.498029 3370
0 0.495 -0.314159 -0.116897 -0.658007 -0.499507 3378
0 0.5 -0.314159 -0.314159 -0.656923 -0.5 3376
0 0.505 -0.314159 -0.511421 -0.65485 -0.499507 3378
0 0.51 -0.314159 -0.707905 -0.651798 -0.498029 3370
0 0.515 -0.314159 -0.902835 -0.64777 -0.495572 3334
0 0.52 -0.314159 -1.09544 -0.642776 -0.492146 3311
0 0.525 -0.314159 -1.28496 -0.636847 -0.487764 3343
0 0.53 -0.314159 -1.47066 -0.629946 -0.482444 3363
0 0.535 -0.314159 -1.65178 -0.622134 -0.476207 3357
0 0.54 -0.314159 -1.82763 -0.613449 -0.469077 3348
0 0.545 -0.314159 -1.99751 -0.603886 -0.461082 3379
0 0.55 -0.314159 -2.16074 -0.593484 -0.452254 3339
0 0.555 -0.314159 -2.31669 -0.58228 -0.442628 3355
0 0.56 -0.314159 -2.46473 -0.570327 -0.432242 3415
0 0.565 -0.314159 -2.60428 -0.557666 -0.421137 3394
0 0.57 -0.314159 -2.7348 -0.544314 -0.409356 3410
0 0.575 -0.314159 -2.85576 -0.530336 -0.396946 3386
0 0.58 -0.314159 -2.96669 -0.51579 -0.383957 3374
0 0.585 -0.314159 -3.06716 -0.500706 -0.370438 3450
0 0.59 -0.314159 -3.15676 -0.485147 -0.356445 3454
0 0.595 -0.314159 -3.23514 -0.469161 -0.342031 3423
0 0.6 -0.314159 -3.30199 -0.452817 -0.327254 3405
0 0.605 -0.314159 -3.35705 -0.436163 -0.312173 3400
0 0.61 -0.314159 -3.40011 -0.419276 -0.296845 3415
0 0.615 -0.314159 -3.43098 -0.402194 -0.281333 3426
0 0.62 -0.314159 -3.44955 -0.384997 -0.265698 3434
0 0.625 -0.314159 -3.45575 -0.367732 -0.25 3458
0 0.63 -0.314159 -3.44955 -0.350467 -0.234302 3456
0 0.635 -0.314159 -3.43098 -0.333267 -0.218667 3470
0 0.64 -0.314159 -3.40011 -0.316188 -0.203155 3484
0 0.645 -0.314159 -3.35705 -0.299296 -0.187828 3430
0 0.65 -0.314159 -3.30199 -0.282648 -0.172746 3465
0 0.655 -0.314159 -3.23514 -0.266305 -0.157969 3494
0 0.66 -0.314159 -3.15676 -0.250327 -0.143555 3520
0 0.665 -0.314159 -3.06716 -0.234767 -0.129562 3537
0 0.67 -0.314159 -2.96669 -0.219682 -0.116043 3553
0 0.675 -0.314159 -2.85576 -0.205125 -0.103054 3546
0 0.68 -0.314159 -2.7348 -0.191151 -0.090644 3552
0 0.685 -0.314159 -2.60428 -0.177799 -0.0788632 3526
0 0.69 -0.314159 -2.46473 -0.16513 -0.0677579 3597
0 0.695 -0.314159 -2.31669 -0.153172 -0.0573717 3579
0 0.7 -0.314159 -2.16074 -0.141985 -0.0477458 3598
0 0.705 -0.314159 -1.99751 -0.131588 -0.038918 3608
0 0.71 -0.314159 -1.82763 -0.122022 -0.0309233 3635
0 0.715 -0.314159 -1.65178 -0.113331 -0.0237933 3628
0 0.72 -0.314159 -1.47066 -0.105524 -0.0175559 3647
0 0.725 -0.314159 -1.28497 -0.0986322 -0.0122359 3640
0 0.73 -0.314159 -1.09544 -0.0926899 -0.00785422 3660
0 0.735 -0.314159 -0.902835 -0.0876896 -0.00442819 3704
0 0.74 -0.314159 -0.707906 -0.0836625 -0.00197133 3708
0 0.745 -0.314159 -0.511422 -0.0806133 -0.00049332 3691
0 0.75 -0.314159 -0.31416 -0.078548 -3.21965e-15 3726
0 0.755 -0.314159 -0.116898 -0.0774612 -0.000493315 3762
0 0.76 -0.314159 0.0795862 -0.077379 -0.00197132 3760
0 0.765 -0.314159 0.274516 -0.078254 -0.00442818 3775
0 0.77 -0.314159 0.467123 -0.0801216 -0.0078542 3851
0 0.775 -0.314159 0.656646 -0.08293 -0.0122359 3827
0 0.78 -0.314159 0.842338 -0.0866705 -0.0175559 3863
0 0.785 -0.314159 1.02347 -0.0913461 -0.0237932 3846
0 0.79 -0.314159 1.19931 -0.0968984 -0.0309233 3867
0 0.795 -0.314159 1.36919 -0.103316 -0.038918 3908
0 0.8 -0.314159 1.53242 -0.110573 -0.0477457 3907
0 0.805 -0.314159 1.68837 -0.118624 -0.0573717 3921
0 0.81 -0.314159 1.83641 -0.127435 -0.0677578 4028
0 0.815 -0.314159 1.97596 -0.136962 -0.0788632 4024
0 0.82 -0.314159 2.10648 -0.147162 -0.090644 4084
0 0.825 -0.314159 2.22744 -0.157997 -0.103054 4075
0 0.83 -0.314159 2.33837 -0.169411 -0.116043 4083
0 0.835 -0.314159 2.43884 -0.181361 -0.129562 4161
0 0.84 -0.314159 2.52844 -0.193779 -0.143555 4119
0 0.845 -0.314159 2.60682 -0.206615 -0.157969 4232
0 0.85 -0.314159 2.67367 -0.219817 -0.172746 4242
0 0.855 -0.314159 2.72873 -0.233323 -0.187827 4265
0 0.86 -0.314159 2.77179 -0.247072 -0.203155 4309
0 0.865 -0.314159 2.80266 -0.261008 -0.218667 4350
0 0.87 -0.314159 2.82123 -0.275068 -0.234302 4402
0 0.875 -0.314159 2.82743 -0.28919 -0.25 4439
0 0.88 -0.314159 2.82123 -0.30331 -0.265698 4457
0 0.885 -0.314159 2.80266 -0.317371 -0.281333 4561
0 0.89 -0.314159 2.77179 -0.331311 -0.296845 4550
0 0.895 -0.314159 2.72873 -0.345061 -0.312172 4690
0 0.9 -0.314159 2.67367 -0.358569 -0.327254 4662
0 0.905 -0.314159 2.60682 -0.371766 -0.342031 4753
0 0.91 -0.314159 2.52844 -0.384608 -0.356445 4846
0 0.915 -0.314159 2.43884 -0.397028 -0.370438 4856
0 0.92 -0.314159 2.33838 -0.40897 -0.383957 4957
0 0.925 -0.314159 2.22744 -0.420371 -0.396946 5058
0 0.93 -0.314159 2.10648 -0.431215 -0.409356 5097
0 0.935 -0.314159 1.97596 -0.441414 -0.421137 5206
0 0.94 -0.314159 1.83641 -0.450951 -0.432242 5326
0 0.945 -0.314159 1.68837 -0.459772 -0.442628 5415
0 0.95 -0.314159 1.53242 -0.467824 -0.452254 5557
0 0.955 -0.314159 1.36919 -0.475063 -0.461082 5681
0 0.96 -0.314159 1.19932 -0.481492 -0.469077 5857
0 0.965 -0.314159 1.02347 -0.48703 -0.476207 5970
0 0.97 -0.314159 0.842339 -0.49169 -0.482444 6149
0 0.975 -0.314159 0.656647 -0.495444 -0.487764 6419
0 0.98 -0.314159 0.467124 -0.498254 -0.492146 6664
0 0.985 -0.314159 0.274517 -0.500114 -0.495572 7008
0 0.99 -0.314159 0.0795874 -0.501021 -0.498029 7362
0 0.995 -0.314159 -0.116896 -0.500916 -0.499507 5814
0 1 -0.314159 -0.314159 -0.499833 -0.5 1326
0.005 0 -0.511422 -0.314159 -0.811877 -0.499507 5814
0.005 0.005 -0.511422 -0.511422 -0.809842 -0.499013 6905
0.005 0.01 -0.511422 -0.707905 -0.806773 -0.497535 8463
0.005 0.015 -0.511422 -0.902835 -0.802791 -0.495079 9535
0.005 0.02 -0.511422 -1.09544 -0.797809 -0.491652 9130
0.005 0.025 -0.511422 -1.28496 -0.791845 -0.487271 8805
0.005 0.03 -0.511422 -1.47066 -0.784958 -0.481951 8448
0.005 0.035 -0.511422 -1.65178 -0.777149 -0.475713 8078
0.005 0.04 -0.511422 -1.82763 -0.76841 -0.468583 7918
0.005 0.045 -0.511422 -1.99751 -0.758876 -0.460589 7700
0.005 0.05 -0.511422 -2.16074 -0.748535 -0.451761 7523
0.005 0.055 -0.511422 -2.31669 -0.737319 -0.442135 7350
0.005 0.06 -0.511422 -2.46473 -0.725366 -0.431749 7196
0.005 0.065 -0.511422 -2.60428 -0.712686 -0.420643 7024
0.005 0.07 -0.511422 -2.7348 -0.6993 -0.408863 6920
0.005 0.075 -0.511422 -2.85576 -0.685361 -0.396453 6822
0.005 0.08 -0.511422 -2.96669 -0.670796 -0.383463 6729
0.005 0.085 -0.511422 -3.06716 -0.655726 -0.369945 6540
0.005 0.09 -0.511422 -3.15676 -0.64017 -0.355952 6457
0.005 0.095 -0.511422 -3.23514 -0.624185 -0.341538 6446
0.005 0.1 -0.511422 -3.30199 -0.607846 -0.326761 6297
0.005 0.105 -0.511422 -3.35705 -0.591166 -0.311679 6241
0.005 0.11 -0.511422 -3.40011 -0.574283 -0.296352 6148
0.005 0.115 -0.511422 -3.43098 -0.5572 -0.28084 6055
0.005 0.12 -0.511422 -3.44955 -0.539995 -0.265204 6038
0.005 0.125 -0.511422 -3.45575 -0.522752 -0.249507 5912
0.005 0.13 -0.511422 -3.44955 -0.505473 -0.233809 5892
0.005 0.135 -0.511422 -3.43098 -0.488282 -0.218173 5821
0.005 0.14 -0.511422 -3.40011 -0.471206 -0.202661 5752
0.005 0.145 -0.511422 -3.35705 -0.454303 -0.187334 5709
0.005 0.15 -0.511422 -3.30199 -0.437665 -0.172252 5680
0.005 0.155 -0.511422 -3.23514 -0.421322 -0.157476 5620
0.005 0.16 -0.511422 -3.15676 -0.405338 -0.143062 5549
0.005 0.165 -0.511422 -3.06716 -0.389778 -0.129068 5518
0.005 0.17 -0.511422 -2.96669 -0.374696 -0.11555 5473
0.005 0.175 -0.511422 -2.85576 -0.36014 -0.10256 5403
0.005 0.18 -0.511422 -2.7348 -0.346163 -0.0901507 5383
0.005 0.185 -0.511422 -2.60428 -0.332816 -0.0783699 5325
0.005 0.19 -0.511422 -2.46473 -0.320143 -0.0672645 5295
0.005 0.195 -0.511422 -2.31669 -0.308188 -0.0568784 5278
0.005 0.2 -0.511422 -2.16074 -0.296995 -0.0472524 5229
0.005 0.205 -0.511422 -1.99751 -0.286599 -0.0384247 5206
0.005 0.21 -0.511422 -1.82763 -0.277036 -0.03043 5156
0.005 0.215 -0.511422 -1.65178 -0.268338 -0.0232999 5086
0.005 0.22 -0.511422 -1.47066 -0.260532 -0.0170626 5064
0.005 0.225 -0.511422 -1.28496 -0.253642 -0.0117426 5062
0.005 0.23 -0.511422 -1.09544 -0.247692 -0.00736089 5039
0.005 0.235 -0.511422 -0.902835 -0.242696 -0.00393487 5031
0.005 0.24 -0.511422 -0.707905 -0.238669 -0.00147801 5025
0.005 0.245 -0.511422 -0.511422 -0.235622 -8.41233e-10 4975
0.005 0.25 -0.511422 -0.314159 -0.233557 0.000493318 4906
0.005 0.255 -0.511422 -0.116897 -0.232481 8.41232e-10 4923
0.005 0.26 -0.511422 0.0795865 -0.232388 -0.00147801 4903
0.005 0.265 -0.511422 0.274516 -0.233273 -0.00393487 4863
0.005 0.27 -0.511422 0.467123 -0.235125 -0.00736089 4821
0.005 0.275 -0.511422 0.656646 -0.237935 -0.0117425 4851
0.005 0.28 -0.511422 0.842338 -0.241683 -0.0170626 4814
0.005 0.285 -0.511422 1.02347 -0.246348 -0.0232999 4776
0.005 0.29 -0.511422 1.19931 -0.251904 -0.03043 4738
0.005 0.295 -0.511422 1.36919 -0.258326 -0.0384247 4753
0.005 0.3 -0.511422 1.53242 -0.26558 -0.0472524 4726
0.005 0.305 -0.511422 1.68837 -0.273632 -0.0568784 4727
0.005 0.31 -0.511422 1.83641 -0.282444 -0.0672645 4670
0.005 0.315 -0.511422 1.97596 -0.291974 -0.0783699 4658
0.005 0.32 -0.511422 2.10648 -0.30218 -0.0901507 4712
0.005 0.325 -0.511422 2.22744 -0.313016 -0.10256 4672
0.005 0.33 -0.511422 2.33838 -0.324431 -0.11555 4625
0.005 0.335 -0.511422 2.43884 -0.336373 -0.129068 4627
0.005 0.34 -0.511422 2.52844 -0.348791 -0.143062 4593
0.005 0.345 -0.511422 2.60682 -0.361632 -0.157476 4608
0.005 0.35 -0.511422 2.67367 -0.374829 -0.172252 4607
0.005 0.355 -0.511422 2.72873 -0.388338 -0.187334 4601
0.005 0.36 -0.511422 2.77179 -0.402091 -0.202661 4592
0.005 0.365 -0.511422 2.80266 -0.416022 -0.218173 4585
0.005 0.37 -0.511422 2.82123 -0.430088 -0.233809 4539
0.005 0.375 -0.511422 2.82743 -0.44421 -0.249507 4497
0.005 0.38 -0.511422 2.82123 -0.458323 -0.265204 4519
0.005 0.385 -0.511422 2.80266 -0.472386 -0.28084 4525
0.005 0.39 -0.511422 2.77179 -0.486328 -0.296352 4538
0.005 0.395 -0.511422 2.72873 -0.500068 -0.311679 4537
0.005 0.4 -0.511422 2.67367 -0.513581 -0.326761 4503
0.005 0.405 -0.511422 2.60682 -0.52679 -0.341538 4508
0.005 0.41 -0.511422 2.52844 -0.539617 -0.355951 4459
0.005 0.415 -0.511422 2.43884 -0.552047 -0.369945 4453
0.005 0.42 -0.511422 2.33838 -0.563986 -0.383463 4436
0.005 0.425 -0.511422 2.22744 -0.575388 -0.396453 4452
0.005 0.43 -0.511422 2.10648 -0.586239 -0.408863 4449
0.005 0.435 -0.511422 1.97596 -0.596447 -0.420643 4437
0.005 0.44 -0.511422 1.83641 -0.60598 -0.431749 4425
0.005 0.445 -0.511422 1.68837 -0.614793 -0.442135 4437
0.005 0.45 -0.511422 1.53242 -0.62284 -0.451761 4444
0.005 0.455 -0.511422 1.36919 -0.630076 -0.460589 4434
0.005 0.46 -0.511422 1.19931 -0.636518 -0.468583 4434
0.005 0.465 -0.511422 1.02347 -0.642055 -0.475713 4452
0.005 0.47 -0.511422 0.842338 -0.646731 -0.481951 4481
0.005 0.475 -0.511422 0.656647 -0.650463 -0.487271 4451
0.005 0.48 -0.511422 0.467123 -0.65327 -0.491652 4430
0.005 0.485 -0.511422 0.274517 -0.655125 -0.495079 4457
0.005 0.49 -0.511422 0.079587 -0.656038 -0.497535 4433
0.005 0.495 -0.511422 -0.116897 -0.655942 -0.499013 4439
0.005 0.5 -0.511422 -0.314159 -0.654851 -0.499507 4418
0.005 0.505 -0.511422 -0.511421 -0.652779 -0.499013 4439
0.005 0.51 -0.511422 -0.707905 -0.649729 -0.497535 4433
0.005 0.515 -0.511422 -0.902835 -0.645701 -0.495079 4455
0.005 0.52 -0.511422 -1.09544 -0.640709 -0.491652 4432
0.005 0.525 -0.511422 -1.28496 -0.634782 -0.487271 4451
0.005 0.53 -0.511422 -1.47066 -0.627875 -0.481951 4481
0.005 0.535 -0.511422 -1.65178 -0.620064 -0.475713 4452
0.005 0.54 -0.511422 -1.82763 -0.611384 -0.468583 4434
0.005 0.545 -0.511422 -1.99751 -0.601822 -0.460589 4434
0.005 0.55 -0.511422 -2.16074 -0.591408 -0.451761 4442
0.005 0.555 -0.511422 -2.31669 -0.580228 -0.442135 4440
0.005 0.56 -0.511422 -2.46473 -0.568275 -0.431749 4425
0.005 0.565 -0.511422 -2.60428 -0.555603 -0.420643 4437
0.005 0.57 -0.511422 -2.7348 -0.54225 -0.408863 4449
0.005 0.575 -0.511422 -2.85576 -0.528265 -0.396453 4454
0.005 0.58 -0.511422 -2.96669 -0.513723 -0.383463 4436
0.005 0.585 -0.511422 -3.06716 -0.498641 -0.369945 4451
0.005 0.59 -0.511422 -3.15676 -0.48308 -0.355952 4461
0.005 0.595 -0.511422 -3.23514 -0.467099 -0.341538 4508
0.005 0.6 -0.511422 -3.30199 -0.450749 -0.326761 4503
0.005 0.605 -0.511422 -3.35705 -0.434098 -0.311679 4537
0.005 0.61 -0.511422 -3.40011 -0.41721 -0.296352 4538
0.005 0.615 -0.511422 -3.43098 -0.400132 -0.28084 4525
0.005 0.62 -0.511422 -3.44955 -0.382933 -0.265204 4517
0.005 0.625 -0.511422 -3.45575 -0.365666 -0.249507 4498
0.005 0.63 -0.511422 -3.44955 -0.348402 -0.233809 4539
0.005 0.635 -0.511422 -3.43098 -0.331204 -0.218173 4585
0.005 0.64 -0.511422 -3.40011 -0.314123 -0.202661 4592
0.005 0.645 -0.511422 -3.35705 -0.297231 -0.187334 4601
0.005 0.65 -0.511422 -3.30199 -0.280584 -0.172252 4607
0.005 0.655 -0.511422 -3.23514 -0.264241 -0.157476 4606
0.005 0.66 -0.511422 -3.15676 -0.248262 -0.143062 4595
0.005 0.665 -0.511422 -3.06716 -0.232701 -0.129068 4627
0.005 0.67 -0.511422 -2.96669 -0.217619 -0.11555 4625
0.005 0.675 -0.511422 -2.85576 -0.203063 -0.10256 4672
0.005 0.68 -0.511422 -2.7348 -0.189086 -0.0901507 4712
0.005 0.685 -0.511422 -2.60428 -0.175737 -0.0783699 4658
0.005 0.69 -0.511422 -2.46473 -0.163062 -0.0672645 4668
0.005 0.695 -0.511422 -2.31669 -0.151115 -0.0568784 4729
0.005 0.7 -0.511422 -2.16074 -0.139914 -0.0472525 4726
0.005 0.705 -0.511422 -1.99751 -0.12952 -0.0384247 4753
0.005 0.71 -0.511422 -1.82763 -0.119954 -0.03043 4737
0.005 0.715 -0.511422 -1.65178 -0.111264 -0.0232999 4776
0.005 0.72 -0.511422 -1.47066 -0.103456 -0.0170626 4814
0.005 0.725 -0.511422 -1.28497 -0.096562 -0.0117426 4849
0.005 0.73 -0.511422 -1.09544 -0.0906229 -0.0073609 4823
0.005 0.735 -0.511422 -0.902835 -0.0856246 -0.00393488 4863
0.005 0.74 -0.511422 -0.707906 -0.0815994 -0.00147801 4903
0.005 0.745 -0.511422 -0.511422 -0.0785498 -2.5237e-09 4923
0.005 0.75 -0.511422 -0.31416 -0.0764799 0.000493318 4906
0.005 0.755 -0.511422 -0.116898 -0.0753948 2.5237e-09 4975
0.005 0.76 -0.511422 0.0795862 -0.0753145 -0.001478 5023
0.005 0.765 -0.511422 0.274516 -0.0761864 -0.00393486 5033
0.005 0.77 -0.511422 0.467123 -0.0780549 -0.00736088 5038
0.005 0.775 -0.511422 0.656646 -0.0808637 -0.0117425 5062
0.005 0.78 -0.511422 0.842338 -0.0846005 -0.0170625 5064
0.005 0.785 -0.511422 1.02347 -0.0892788 -0.0232999 5086
0.005 0.79 -0.511422 1.19931 -0.0948351 -0.03043 5156
0.005 0.795 -0.511422 1.36919 -0.101254 -0.0384247 5204
0.005 0.8 -0.511422 1.53242 -0.108509 -0.0472524 5231
0.005 0.805 -0.511422 1.68837 -0.116562 -0.0568783 5278
0.005 0.81 -0.511422 1.83641 -0.125367 -0.0672645 5295
0.005 0.815 -0.511422 1.97596 -0.134893 -0.0783699 5325
0.005 0.82 -0.511422 2.10648 -0.145097 -0.0901507 5382
0.005 0.825 -0.511422 2.22744 -0.155941 -0.10256 5403
0.005 0.83 -0.511422 2.33837 -0.167354 -0.11555 5471
0.005 0.835 -0.511422 2.43884 -0.179295 -0.129068 5520
0.005 0.84 -0.511422 2.52844 -0.191713 -0.143062 5549
0.005 0.845 -0.511422 2.60682 -0.204554 -0.157476 5620
0.005 0.85 -0.511422 2.67367 -0.217749 -0.172252 5680
0.005 0.855 -0.511422 2.72873 -0.23126 -0.187334 5709
0.005 0.86 -0.511422 2.77179 -0.245009 -0.202661 5752
0.005 0.865 -0.511422 2.80266 -0.258944 -0.218173 5819
0.005 0.87 -0.511422 2.82123 -0.273004 -0.233809 5894
0.005 0.875 -0.511422 2.82743 -0.287126 -0.249507 5912
0.005 0.88 -0.511422 2.82123 -0.301247 -0.265204 6038
0.005 0.885 -0.511422 2.80266 -0.315308 -0.28084 6055
0.005 0.89 -0.511422 2.77179 -0.329245 -0.296352 6148
0.005 0.895 -0.511422 2.72873 -0.342992 -0.311679 6241
0.005 0.9 -0.511422 2.67367 -0.356504 -0.326761 6296
0.005 0.905 -0.511422 2.60682 -0.3697 -0.341538 6448
0.005 0.91 -0.511422 2.52844 -0.382547 -0.355951 6457
0.005 0.915 -0.511422 2.43884 -0.394959 -0.369945 6540
0.005 0.92 -0.511422 2.33838 -0.406899 -0.383463 6729
0.005 0.925 -0.511422 2.22744 -0.418322 -0.396453 6822
0.005 0.93 -0.511422 2.10648 -0.429145 -0.408863 6920
0.005 0.935 -0.511422 1.97596 -0.439358 -0.420643 7022
0.005 0.94 -0.511422 1.83641 -0.448898 -0.431749 7198
0.005 0.945 -0.511422 1.68837 -0.457704 -0.442135 7350
0.005 0.95 -0.511422 1.53242 -0.465758 -0.451761 7523
0.005 0.955 -0.511422 1.36919 -0.472991 -0.460589 7701
0.005 0.96 -0.511422 1.19932 -0.479432 -0.468583 7918
0.005 0.965 -0.511422 1.02347 -0.484962 -0.475713 8078
0.005 0.97 -0.511422 0.842339 -0.489661 -0.481951 8446
0.005 0.975 -0.511422 0.656647 -0.493377 -0.487271 8807
0.005 0.98 -0.511422 0.467124 -0.496183 -0.491652 9130
0.005 0.985 -0.511422 0.274517 -0.498077 -0.495078 9535
0.005 0.99 -0.511422 0.0795874 -0.498956 -0.497535 8463
0.005 0.995 -0.511422 -0.116896 -0.498845 -0.499013 6904
0.005 1 -0.511422 -0.314159 -0.497759 -0.499507 5814
0.01 0 -0.707905 -0.314159 -0.808888 -0.498029 7362
0.01 0.005 -0.707905 -0.511422 -0.806772 -0.497535 8463
0.01 0.01 -0.707905 -0.707905 -0.80376 -0.496057 7527
0.01 0.015 -0.707905 -0.902835 -0.799741 -0.4936 8694
0.01 0.02 -0.707905 -1.09544 -0.794759 -0.490174 9497
0.01 0.025 -0.707905 -1.28496 -0.788797 -0.485793 9140
0.01 0.03 -0.707905 -1.47066 -0.781855 -0.480473 8805
0.01 0.035 -0.707905 -1.65178 -0.774063 -0.474235 8445
0.01 0.04 -0.707905 -1.82763 -0.765419 -0.467105 8114
0.01 0.045 -0.707905 -1.99751 -0.75587 -0.459111 7914
0.01 0.05 -0.707905 -2.16074 -0.745438 -0.450283 7703
0.01 0.055 -0.707905 -2.31669 -0.734229 -0.440657 7548
0.01 0.06 -0.707905 -2.46473 -0.72228 -0.430271 7358
0.01 0.065 -0.707905 -2.60428 -0.709595 -0.419165 7161
0.01 0.07 -0.707905 -2.7348 -0.696284 -0.407385 7040
0.01 0.075 -0.707905 -2.85576 -0.682293 -0.394975 6922
0.01 0.08 -0.707905 -2.96669 -0.667765 -0.381985 6837
0.01 0.085 -0.707905 -3.06716 -0.652657 -0.368467 6697
0.01 0.09 -0.707905 -3.15676 -0.63711 -0.354474 6558
0.01 0.095 -0.707905 -3.23514 -0.621143 -0.34006 6520
0.01 0.1 -0.707905 -3.30199 -0.604796 -0.325283 6402
0.01 0.105 -0.707905 -3.35705 -0.588121 -0.310201 6278
0.01 0.11 -0.707905 -3.40011 -0.571235 -0.294874 6285
0.01 0.115 -0.707905 -3.43098 -0.554151 -0.279362 6121
0.01 0.12 -0.707905 -3.44955 -0.536952 -0.263726 6134
0.01 0.125 -0.707905 -3.45575 -0.519703 -0.248029 6047
0.01 0.13 -0.707905 -3.44955 -0.502424 -0.232331 5908
0.01 0.135 -0.707905 -3.43098 -0.485239 -0.216695 5887
0.01 0.14 -0.707905 -3.40011 -0.468154 -0.201183 5826
0.01 0.145 -0.707905 -3.35705 -0.451255 -0.185856 5777
0.01 0.15 -0.707905 -3.30199 -0.434618 -0.170774 5745
0.01 0.155 -0.707905 -3.23514 -0.418271 -0.155998 5662
0.01 0.16 -0.707905 -3.15676 -0.402288 -0.141584 5629
0.01 0.165 -0.707905 -3.06716 -0.386728 -0.12759 5582
0.01 0.17 -0.707905 -2.96669 -0.371647 -0.114072 5579
0.01 0.175 -0.707905 -2.85576 -0.35709 -0.101082 5518
0.01 0.18 -0.707905 -2.7348 -0.343114 -0.0886727 5431
0.01 0.185 -0.707905 -2.60428 -0.329768 -0.0768919 5419
0.01 0.19 -0.707905 -2.46473 -0.317094 -0.0657865 5397
0.01 0.195 -0.707905 -2.31669 -0.305141 -0.0554004 5330
0.01 0.2 -0.707905 -2.16074 -0.293947 -0.0457744 5323
0.01 0.205 -0.707905 -1.99751 -0.283551 -0.0369467 5306
0.01 0.21 -0.707905 -1.82763 -0.273988 -0.028952 5209
0.01 0.215 -0.707905 -1.65178 -0.26529 -0.0218219 5185
0.01 0.22 -0.707905 -1.47066 -0.257484 -0.0155846 5147
0.01 0.225 -0.707905 -1.28496 -0.250595 -0.0102646 5106
0.01 0.23 -0.707905 -1.09544 -0.244644 -0.00588289 5089
0.01 0.235 -0.707905 -0.902835 -0.239647 -0.00245687 5082
0.01 0.24 -0.707905 -0.707905 -0.235622 -1.67915e-09 5046
0.01 0.245 -0.707905 -0.511422 -0.232573 0.00147801 5021
0.01 0.25 -0.707905 -0.314159 -0.23051 0.00197132 5006
0.01 0.255 -0.707905 -0.116897 -0.229432 0.00147801 5007
0.01 0.26 -0.707905 0.0795865 -0.229339 1.67915e-09 4958
0.01 0.265 -0.707905 0.274516 -0.230224 -0.00245686 4955
0.01 0.27 -0.707905 0.467123 -0.232077 -0.00588288 4925
0.01 0.275 -0.707905 0.656646 -0.234886 -0.0102645 4879
0.01 0.28 -0.707905 0.842338 -0.238634 -0.0155845 4815
0.01 0.285 -0.707905 1.02347 -0.2433 -0.0218219 4859
0.01 0.29 -0.707905 1.19931 -0.248856 -0.028952 4845
0.01 0.295 -0.707905 1.36919 -0.255277 -0.0369467 4829
0.01 0.3 -0.707905 1.53242 -0.262531 -0.0457744 4778
0.01 0.305 -0.707905 1.68837 -0.270584 -0.0554004 4795
0.01 0.31 -0.707905 1.83641 -0.279395 -0.0657865 4795
0.01 0.315 -0.707905 1.97596 -0.288926 -0.0768919 4733
0.01 0.32 -0.707905 2.10648 -0.299133 -0.0886727 4727
0.01 0.325 -0.707905 2.22744 -0.309968 -0.101082 4665
0.01 0.33 -0.707905 2.33838 -0.321382 -0.114072 4686
0.01 0.335 -0.707905 2.43884 -0.333325 -0.12759 4692
0.01 0.34 -0.707905 2.52844 -0.345742 -0.141584 4664
0.01 0.345 -0.707905 2.60682 -0.358582 -0.155998 4681
0.01 0.35 -0.707905 2.67367 -0.371782 -0.170774 4633
0.01 0.355 -0.707905 2.72873 -0.385287 -0.185856 4582
0.01 0.36 -0.707905 2.77179 -0.399042 -0.201183 4610
0.01 0.365 -0.707905 2.80266 -0.412973 -0.216695 4616
0.01 0.37 -0.707905 2.82123 -0.42704 -0.232331 4624
0.01 0.375 -0.707905 2.82743 -0.441161 -0.248029 4612
0.01 0.38 -0.707905 2.82123 -0.455275 -0.263726 4549
0.01 0.385 -0.707905 2.80266 -0.469344 -0.279362 4546
0.01 0.39 -0.707905 2.77179 -0.483277 -0.294874 4506
0.01 0.395 -0.707905 2.72873 -0.497021 -0.310201 4517
0.01 0.4 -0.707905 2.67367 -0.510536 -0.325283 4521
0.01 0.405 -0.707905 2.60682 -0.52374 -0.34006 4552
0.01 0.41 -0.707905 2.52844 -0.536566 -0.354473 4559
0.01 0.415 -0.707905 2.43884 -0.548997 -0.368467 4534
0.01 0.42 -0.707905 2.33838 -0.560937 -0.381985 4519
0.01 0.425 -0.707905 2.22744 -0.572339 -0.394975 4529
0.01 0.43 -0.707905 2.10648 -0.583189 -0.407385 4517
0.01 0.435 -0.707905 1.97596 -0.593398 -0.419165 4504
0.01 0.44 -0.707905 1.83641 -0.60293 -0.430271 4467
0.01 0.445 -0.707905 1.68837 -0.611744 -0.440657 4477
0.01 0.45 -0.707905 1.53242 -0.619794 -0.450283 4486
0.01 0.455 -0.707905 1.36919 -0.627026 -0.459111 4457
0.01 0.46 -0.707905 1.19931 -0.633471 -0.467105 4441
0.01 0.465 -0.707905 1.02347 -0.639006 -0.474235 4431
0.01 0.47 -0.707905 0.842338 -0.643682 -0.480473 4452
0.01 0.475 -0.707905 0.656647 -0.647414 -0.485793 4457
0.01 0.48 -0.707905 0.467123 -0.650221 -0.490174 4492
0.01 0.485 -0.707905 0.274517 -0.652079 -0.4936 4476
0.01 0.49 -0.707905 0.079587 -0.652987 -0.496057 4411
0.01 0.495 -0.707905 -0.116897 -0.652892 -0.497535 4430
0.01 0.5 -0.707905 -0.314159 -0.6518 -0.498029 4458
0.01 0.505 -0.707905 -0.511421 -0.649729 -0.497535 4430
0.01 0.51 -0.707905 -0.707905 -0.646679 -0.496057 4411
0.01 0.515 -0.707905 -0.902835 -0.642651 -0.4936 4474
0.01 0.52 -0.707905 -1.09544 -0.637661 -0.490174 4494
0.01 0.525 -0.707905 -1.28496 -0.631734 -0.485793 4457
0.01 0.53 -0.707905 -1.47066 -0.624825 -0.480473 4452
0.01 0.535 -0.707905 -1.65178 -0.617016 -0.474235 4431
0.01 0.54 -0.707905 -1.82763 -0.608335 -0.467105 4441
0.01 0.545 -0.707905 -1.99751 -0.598776 -0.459111 4457
0.01 0.55 -0.707905 -2.16074 -0.588361 -0.450283 4484
0.01 0.555 -0.707905 -2.31669 -0.57718 -0.440657 4479
0.01 0.56 -0.707905 -2.46473 -0.56523 -0.430271 4467
0.01 0.565 -0.707905 -2.60428 -0.552552 -0.419165 4504
0.01 0.57 -0.707905 -2.7348 -0.539201 -0.407385 4517
0.01 0.575 -0.707905 -2.85576 -0.525217 -0.394975 4529
0.01 0.58 -0.707905 -2.96669 -0.510676 -0.381985 4519
0.01 0.585 -0.707905 -3.06716 -0.495591 -0.368467 4532
0.01 0.59 -0.707905 -3.15676 -0.480031 -0.354474 4561
0.01 0.595 -0.707905 -3.23514 -0.464049 -0.34006 4552
0.01 0.6 -0.707905 -3.30199 -0.447699 -0.325283 4521
0.01 0.605 -0.707905 -3.35705 -0.431049 -0.310201 4517
0.01 0.61 -0.707905 -3.40011 -0.414164 -0.294874 4506
0.01 0.615 -0.707905 -3.43098 -0.397088 -0.279362 4546
0.01 0.62 -0.707905 -3.44955 -0.379884 -0.263726 4547
0.01 0.625 -0.707905 -3.45575 -0.362617 -0.248029 4614
0.01 0.63 -0.707905 -3.44955 -0.345356 -0.232331 4624
0.01 0.635 -0.707905 -3.43098 -0.328155 -0.216695 4616
0.01 0.64 -0.707905 -3.40011 -0.311077 -0.201183 4610
0.01 0.645 -0.707905 -3.35705 -0.294183 -0.185856 4582
0.01 0.65 -0.707905 -3.30199 -0.277536 -0.170774 4633
0.01 0.655 -0.707905 -3.23514 -0.261193 -0.155998 4679
0.01 0.66 -0.707905 -3.15676 -0.245213 -0.141584 4666
0.01 0.665 -0.707905 -3.06716 -0.229653 -0.12759 4692
0.01 0.67 -0.707905 -2.96669 -0.21457 -0.114072 4686
0.01 0.675 -0.707905 -2.85576 -0.200013 -0.101082 4665
0.01 0.68 -0.707905 -2.7348 -0.186036 -0.0886727 4727
0.01 0.685 -0.707905 -2.60428 -0.172692 -0.0768919 4733
0.01 0.69 -0.707905 -2.46473 -0.160017 -0.0657865 4793
0.01 0.695 -0.707905 -2.31669 -0.148066 -0.0554004 4797
0.01 0.7 -0.707905 -2.16074 -0.136865 -0.0457744 4778
0.01 0.705 -0.707905 -1.99751 -0.12647 -0.0369467 4829
0.01 0.71 -0.707905 -1.82763 -0.116918 -0.028952 4845
0.01 0.715 -0.707905 -1.65178 -0.108216 -0.0218219 4859
0.01 0.72 -0.707905 -1.47066 -0.100406 -0.0155846 4815
0.01 0.725 -0.707905 -1.28497 -0.0935126 -0.0102646 4877
0.01 0.73 -0.707905 -1.09544 -0.0875739 -0.00588289 4927
0.01 0.735 -0.707905 -0.902835 -0.0825776 -0.00245687 4955
0.01 0.74 -0.707905 -0.707906 -0.0785497 -5.03744e-09 4958
0.01 0.745 -0.707905 -0.511422 -0.0755002 0.001478 5007
0.01 0.75 -0.707905 -0.31416 -0.0734289 0.00197132 5006
0.01 0.755 -0.707905 -0.116898 -0.0723555 0.00147801 5021
0.01 0.76 -0.707905 0.0795862 -0.0722644 5.03743e-09 5044
0.01 0.765 -0.707905 0.274516 -0.0731509 -0.00245686 5084