TITLE="Pressure integrated from Omni2D"
VARIABLES = "X","Y","Dudt","DvDt","Pcal","Preal","Count"
ZONE I=201, J=201
0 0 -0.0707107 -0.0707107 -0.570553 -0.5 1326
0 0.005 -0.0707107 -0.267973 -0.56972 -0.499507 5814
0 0.01 -0.0707107 -0.464457 -0.567893 -0.498029 7362
0 0.015 -0.0707107 -0.659386 -0.565082 -0.495572 7008
0 0.02 -0.0707107 -0.851993 -0.561315 -0.492146 6664
0 0.025 -0.0707107 -1.04152 -0.556572 -0.487764 6417
0 0.03 -0.0707107 -1.22721 -0.55086 -0.482444 6151
0 0.035 -0.0707107 -1.40834 -0.544265 -0.476207 5970
0 0.04 -0.0707107 -1.58418 -0.536798 -0.469077 5856
0 0.045 -0.0707107 -1.75406 -0.52847 -0.461082 5681
0 0.05 -0.0707107 -1.91729 -0.519291 -0.452254 5558
0 0.055 -0.0707107 -2.07324 -0.509322 -0.442628 5415
0 0.06 -0.0707107 -2.22128 -0.498588 -0.432242 5324
0 0.065 -0.0707107 -2.36083 -0.487119 -0.421137 5208
0 0.07 -0.0707107 -2.49135 -0.474975 -0.409356 5097
0 0.075 -0.0707107 -2.61231 -0.462215 -0.396946 5058
0 0.08 -0.0707107 -2.72324 -0.448893 -0.383957 4957
0 0.085 -0.0707107 -2.82371 -0.435016 -0.370438 4856
0 0.09 -0.0707107 -2.91331 -0.420674 -0.356445 4846
0 0.095 -0.0707107 -2.99169 -0.405915 -0.342031 4751
0 0.1 -0.0707107 -3.05854 -0.390791 -0.327254 4664
0 0.105 -0.0707107 -3.1136 -0.375359 -0.312172 4690
0 0.11 -0.0707107 -3.15666 -0.359681 -0.296845 4550
0 0.115 -0.0707107 -3.18753 -0.343823 -0.281333 4561
0 0.12 -0.0707107 -3.2061 -0.327839 -0.265698 4457
0 0.125 -0.0707107 -3.2123 -0.311792 -0.25 4439
0 0.13 -0.0707107 -3.2061 -0.295746 -0.234302 4400
0 0.135 -0.0707107 -3.18753 -0.279761 -0.218667 4352
0 0.14 -0.0707107 -3.15666 -0.263901 -0.203155 4309
0 0.145 -0.0707107 -3.1136 -0.248225 -0.187828 4265
0 0.15 -0.0707107 -3.05854 -0.232796 -0.172746 4242
0 0.155 -0.0707107 -2.99169 -0.21767 -0.157969 4232
0 0.16 -0.0707107 -2.91331 -0.202906 -0.143555 4119
0 0.165 -0.0707107 -2.82371 -0.188563 -0.129562 4159
0 0.17 -0.0707107 -2.72325 -0.1747 -0.116043 4085
0 0.175 -0.0707107 -2.61231 -0.161362 -0.103054 4075
0 0.18 -0.0707107 -2.49135 -0.148598 -0.090644 4084
0 0.185 -0.0707107 -2.36083 -0.136468 -0.0788632 4024
0 0.19 -0.0707107 -2.22128 -0.125011 -0.0677579 4028
0 0.195 -0.0707107 -2.07324 -0.114274 -0.0573717 3921
0 0.2 -0.0707107 -1.91729 -0.104302 -0.0477458 3905
0 0.205 -0.0707107 -1.75406 -0.0951273 -0.038918 3910
0 0.21 -0.0707107 -1.58418 -0.0867834 -0.0309233 3867
0 0.215 -0.0707107 -1.40834 -0.0792911 -0.0237932 3846
0 0.22 -0.0707107 -1.22721 -0.0726987 -0.0175559 3863
0 0.225 -0.0707107 -1.04152 -0.0670257 -0.0122359 3827
0 0.23 -0.0707107 -0.851993 -0.0623057 -0.00785421 3851
0 0.235 -0.0707107 -0.659387 -0.0585255 -0.00442819 3772
0 0.24 -0.0707107 -0.464457 -0.0557175 -0.00197133 3762
0 0.245 -0.0707107 -0.267973 -0.0538865 -0.000493319 3762
0 0.25 -0.0707107 -0.0707108 -0.0530331 -3.60822e-16 3726
0 0.255 -0.0707107 0.126551 -0.0531671 -0.000493317 3691
0 0.26 -0.0707107 0.323035 -0.0543028 -0.00197132 3708
0 0.265 -0.0707107 0.517965 -0.0563941 -0.00442818 3704
0 0.27 -0.0707107 0.710571 -0.0594678 -0.00785421 3658
0 0.275 -0.0707107 0.900095 -0.0634944 -0.0122359 3642
0 0.28 -0.0707107 1.08579 -0.0684702 -0.0175559 3647
0 0.285 -0.0707107 1.26691 -0.074339 -0.0237932 3627
0 0.29 -0.0707107 1.44276 -0.0811119 -0.0309233 3635
0 0.295 -0.0707107 1.61264 -0.0887546 -0.038918 3608
0 0.3 -0.0707107 1.77587 -0.0972241 -0.0477457 3598
0 0.305 -0.0707107 1.93182 -0.106499 -0.0573717 3577
0 0.31 -0.0707107 2.07986 -0.116528 -0.0677578 3599
0 0.315 -0.0707107 2.21941 -0.127278 -0.0788632 3526
0 0.32 -0.0707107 2.34993 -0.138697 -0.090644 3552
0 0.325 -0.0707107 2.47089 -0.15075 -0.103054 3546
0 0.33 -0.0707107 2.58182 -0.163384 -0.116043 3553
0 0.335 -0.0707107 2.68229 -0.176541 -0.129562 3537
0 0.34 -0.0707107 2.77189 -0.190179 -0.143555 3520
0 0.345 -0.0707107 2.85027 -0.204233 -0.157969 3496
0 0.35 -0.0707107 2.91712 -0.218652 -0.172746 3465
0 0.355 -0.0707107 2.97218 -0.233376 -0.187828 3430
0 0.36 -0.0707107 3.01524 -0.248345 -0.203155 3484
0 0.365 -0.0707107 3.04611 -0.263498 -0.218667 3470
0 0.37 -0.0707107 3.06468 -0.278775 -0.234302 3456
0 0.375 -0.0707107 3.07088 -0.294114 -0.25 3456
0 0.38 -0.0707107 3.06468 -0.309452 -0.265698 3435
0 0.385 -0.0707107 3.04611 -0.32473 -0.281333 3426
0 0.39 -0.0707107 3.01524 -0.339883 -0.296845 3415
0 0.395 -0.0707107 2.97218 -0.354852 -0.312172 3400
0 0.4 -0.0707107 2.91712 -0.369572 -0.327254 3405
0 0.405 -0.0707107 2.85027 -0.383994 -0.342031 3423
0 0.41 -0.0707107 2.77189 -0.398045 -0.356445 3454
0 0.415 -0.0707107 2.68229 -0.411681 -0.370438 3452
0 0.42 -0.0707107 2.58182 -0.424841 -0.383957 3376
0 0.425 -0.0707107 2.47089 -0.437473 -0.396946 3386
0 0.43 -0.0707107 2.34993 -0.449525 -0.409356 3410
0 0.435 -0.0707107 2.21941 -0.46095 -0.421137 3394
0 0.44 -0.0707107 2.07986 -0.47171 -0.432242 3416
0 0.445 -0.0707107 1.93182 -0.481734 -0.442628 3353
0 0.45 -0.0707107 1.77587 -0.491005 -0.452254 3341
0 0.455 -0.0707107 1.61264 -0.49948 -0.461082 3379
0 0.46 -0.0707107 1.44276 -0.507116 -0.469077 3348
0 0.465 -0.0707107 1.26691 -0.51389 -0.476207 3357
0 0.47 -0.0707107 1.08579 -0.519768 -0.482444 3363
0 0.475 -0.0707107 0.900095 -0.524722 -0.487764 3343
0 0.48 -0.0707107 0.710572 -0.528747 -0.492146 3309
0 0.485 -0.0707107 0.517965 -0.531835 -0.495572 3336
0 0.49 -0.0707107 0.323036 -0.533929 -0.498029 3370
0 0.495 -0.0707107 0.126552 -0.53505 -0.499507 3378
0 0.5 -0.0707107 -0.0707103 -0.535199 -0.5 3376
0 0.505 -0.0707107 -0.267973 -0.534353 -0.499507 3378
0 0.51 -0.0707107 -0.464456 -0.532522 -0.498029 3370
0 0.515 -0.0707107 -0.659386 -0.529713 -0.495572 3334
0 0.52 -0.0707107 -0.851993 -0.525932 -0.492146 3311
0 0.525 -0.0707107 -1.04152 -0.521186 -0.487764 3343
0 0.53 -0.0707107 -1.22721 -0.515512 -0.482444 3363
0 0.535 -0.0707107 -1.40834 -0.508926 -0.476207 3357
0 0.54 -0.0707107 -1.58418 -0.501455 -0.469077 3348
0 0.545 -0.0707107 -1.75406 -0.493101 -0.461082 3379
0 0.55 -0.0707107 -1.91729 -0.483931 -0.452254 3339
0 0.555 -0.0707107 -2.07324 -0.473947 -0.442628 3355
0 0.56 -0.0707107 -2.22128 -0.46321 -0.432242 3415
0 0.565 -0.0707107 -2.36083 -0.451758 -0.421137 3394
0 0.57 -0.0707107 -2.49135 -0.439628 -0.409356 3410
0 0.575 -0.0707107 -2.61231 -0.426871 -0.396946 3386
0 0.58 -0.0707107 -2.72324 -0.413533 -0.383957 3374
0 0.585 -0.0707107 -2.82371 -0.399659 -0.370438 3450
0 0.59 -0.0707107 -2.91331 -0.385316 -0.356445 3454
0 0.595 -0.0707107 -2.99169 -0.370559 -0.342031 3423
0 0.6 -0.0707107 -3.05854 -0.355432 -0.327254 3405
0 0.605 -0.0707107 -3.1136 -0.340002 -0.312173 3400
0 0.61 -0.0707107 -3.15666 -0.324324 -0.296845 3415
0 0.615 -0.0707107 -3.18753 -0.308465 -0.281333 3426
0 0.62 -0.0707107 -3.2061 -0.292481 -0.265698 3434
0 0.625 -0.0707107 -3.2123 -0.276435 -0.25 3458
0 0.63 -0.0707107 -3.2061 -0.260389 -0.234302 3456
0 0.635 -0.0707107 -3.18753 -0.244403 -0.218667 3470
0 0.64 -0.0707107 -3.15666 -0.228543 -0.203155 3484
0 0.645 -0.0707107 -3.1136 -0.212869 -0.187828 3430
0 0.65 -0.0707107 -3.05854 -0.197439 -0.172746 3465
0 0.655 -0.0707107 -2.99169 -0.182311 -0.157969 3494
0 0.66 -0.0707107 -2.91331 -0.167555 -0.143555 3520
0 0.665 -0.0707107 -2.82371 -0.15321 -0.129562 3537
0 0.67 -0.0707107 -2.72325 -0.139338 -0.116043 3553
0 0.675 -0.0707107 -2.61231 -0.126002 -0.103054 3546
0 0.68 -0.0707107 -2.49135 -0.113246 -0.090644 3552
0 0.685 -0.0707107 -2.36083 -0.101113 -0.0788632 3526
0 0.69 -0.0707107 -2.22128 -0.0896543 -0.0677579 3597
0 0.695 -0.0707107 -2.07324 -0.0789161 -0.0573717 3579
0 0.7 -0.0707107 -1.91729 -0.0689489 -0.0477458 3598
0 0.705 -0.0707107 -1.75406 -0.0597596 -0.038918 3608
0 0.71 -0.0707107 -1.58418 -0.0514268 -0.0309233 3635
0 0.715 -0.0707107 -1.40834 -0.0439383 -0.0237933 3628
0 0.72 -0.0707107 -1.22721 -0.0373471 -0.0175559 3647
0 0.725 -0.0707107 -1.04152 -0.031673 -0.0122359 3640
0 0.73 -0.0707107 -0.851993 -0.026953 -0.00785422 3660
0 0.735 -0.0707107 -0.659387 -0.023174 -0.00442819 3704
0 0.74 -0.0707107 -0.464457 -0.0203652 -0.00197133 3708
0 0.745 -0.0707107 -0.267973 -0.0185342 -0.00049332 3691
0 0.75 -0.0707107 -0.0707112 -0.017686 -3.21965e-15 3726
0 0.755 -0.0707107 0.126551 -0.017816 -0.000493315 3762
0 0.76 -0.0707107 0.323035 -0.0189534 -0.00197132 3760
0 0.765 -0.0707107 0.517965 -0.021049 -0.00442818 3775
0 0.77 -0.0707107 0.710571 -0.0241079 -0.0078542 3851
0 0.775 -0.0707107 0.900094 -0.0281353 -0.0122359 3827
0 0.78 -0.0707107 1.08579 -0.0331168 -0.0175559 3863
0 0.785 -0.0707107 1.26691 -0.0389929 -0.0237932 3846
0 0.79 -0.0707107 1.44276 -0.0457673 -0.0309233 3867
0 0.795 -0.0707107 1.61264 -0.0533994 -0.038918 3908
0 0.8 -0.0707107 1.77587 -0.0618783 -0.0477457 3907
0 0.805 -0.0707107 1.93182 -0.0711478 -0.0573717 3921
0 0.81 -0.0707107 2.07986 -0.0811699 -0.0677578 4028
0 0.815 -0.0707107 2.21941 -0.0919152 -0.0788632 4024
0 0.82 -0.0707107 2.34993 -0.103338 -0.090644 4084
0 0.825 -0.0707107 2.47089 -0.115398 -0.103054 4075
0 0.83 -0.0707107 2.58182 -0.128026 -0.116043 4083
0 0.835 -0.0707107 2.68229 -0.141185 -0.129562 4161
0 0.84 -0.0707107 2.77189 -0.154816 -0.143555 4119
0 0.845 -0.0707107 2.85027 -0.168877 -0.157969 4232
0 0.85 -0.0707107 2.91712 -0.18329 -0.172746 4242
0 0.855 -0.0707107 2.97218 -0.19802 -0.187827 4265
0 0.86 -0.0707107 3.01524 -0.212987 -0.203155 4309
0 0.865 -0.0707107 3.04611 -0.228141 -0.218667 4350
0 0.87 -0.0707107 3.06468 -0.243417 -0.234302 4402
0 0.875 -0.0707107 3.07088 -0.258755 -0.25 4439
0 0.88 -0.0707107 3.06468 -0.274095 -0.265698 4457
0 0.885 -0.0707107 3.04611 -0.289372 -0.281333 4561
0 0.89 -0.0707107 3.01524 -0.304527 -0.296845 4550
0 0.895 -0.0707107 2.97218 -0.319495 -0.312172 4690
0 0.9 -0.0707107 2.91712 -0.334219 -0.327254 4662
0 0.905 -0.0707107 2.85027 -0.348633 -0.342031 4753
0 0.91 -0.0707107 2.77189 -0.362693 -0.356445 4846
0 0.915 -0.0707107 2.68229 -0.37633 -0.370438 4856
0 0.92 -0.0707107 2.58182 -0.389485 -0.383957 4957
0 0.925 -0.0707107 2.47089 -0.402115 -0.396946 5058
0 0.93 -0.0707107 2.34993 -0.414174 -0.409356 5097
0 0.935 -0.0707107 2.21941 -0.425592 -0.421137 5206
0 0.94 -0.0707107 2.07986 -0.436338 -0.432242 5326
0 0.945 -0.0707107 1.93182 -0.446358 -0.442628 5415
0 0.95 -0.0707107 1.77587 -0.455632 -0.452254 5557
0 0.955 -0.0707107 1.61264 -0.464105 -0.461082 5681
0 0.96 -0.0707107 1.44276 -0.471742 -0.469077 5857
0 0.965 -0.0707107 1.26691 -0.478525 -0.476207 5970
0 0.97 -0.0707107 1.08579 -0.484412 -0.482444 6149
0 0.975 -0.0707107 0.900095 -0.489356 -0.487764 6419
0 0.98 -0.0707107 0.710572 -0.493381 -0.492146 6664
0 0.985 -0.0707107 0.517966 -0.496449 -0.495572 7008
0 0.99 -0.0707107 0.323036 -0.498582 -0.498029 7362
0 0.995 -0.0707107 0.126552 -0.499689 -0.499507 5814
0 1 -0.0707107 -0.07071 -0.499832 -0.5 1326
0.005 0 -0.267973 -0.0707107 -0.569718 -0.499507 5814
0.005 0.005 -0.267973 -0.267973 -0.568887 -0.499013 6905
0.005 0.01 -0.267973 -0.464457 -0.567043 -0.497535 8463
0.005 0.015 -0.267973 -0.659386 -0.564257 -0.495079 9535
0.005 0.02 -0.267973 -0.851993 -0.560449 -0.491652 9130
0.005 0.025 -0.267973 -1.04152 -0.555719 -0.487271 8805
0.005 0.03 -0.267973 -1.22721 -0.550025 -0.481951 8448
0.005 0.035 -0.267973 -1.40834 -0.54342 -0.475713 8078
0.005 0.04 -0.267973 -1.58418 -0.535947 -0.468583 7918
0.005 0.045 -0.267973 -1.75406 -0.527624 -0.460589 7700
0.005 0.05 -0.267973 -1.91729 -0.518456 -0.451761 7523
0.005 0.055 -0.267973 -2.07324 -0.508475 -0.442135 7350
0.005 0.06 -0.267973 -2.22128 -0.497735 -0.431749 7196
0.005 0.065 -0.267973 -2.36083 -0.486269 -0.420643 7024
0.005 0.07 -0.267973 -2.49135 -0.474146 -0.408863 6920
0.005 0.075 -0.267973 -2.61231 -0.461367 -0.396453 6822
0.005 0.08 -0.267973 -2.72324 -0.448044 -0.383463 6729
0.005 0.085 -0.267973 -2.82371 -0.43418 -0.369945 6540
0.005 0.09 -0.267973 -2.91331 -0.419835 -0.355952 6457
0.005 0.095 -0.267973 -2.99169 -0.405072 -0.341538 6446
0.005 0.1 -0.267973 -3.05854 -0.389944 -0.326761 6297
0.005 0.105 -0.267973 -3.1136 -0.374509 -0.311679 6241
0.005 0.11 -0.267973 -3.15666 -0.358836 -0.296352 6148
0.005 0.115 -0.267973 -3.18753 -0.342977 -0.28084 6055
0.005 0.12 -0.267973 -3.2061 -0.326991 -0.265204 6038
0.005 0.125 -0.267973 -3.2123 -0.310946 -0.249507 5912
0.005 0.13 -0.267973 -3.2061 -0.294899 -0.233809 5892
0.005 0.135 -0.267973 -3.18753 -0.278915 -0.218173 5821
0.005 0.14 -0.267973 -3.15666 -0.263055 -0.202661 5752
0.005 0.145 -0.267973 -3.1136 -0.24738 -0.187334 5709
0.005 0.15 -0.267973 -3.05854 -0.231948 -0.172252 5680
0.005 0.155 -0.267973 -2.99169 -0.216822 -0.157476 5620
0.005 0.16 -0.267973 -2.91331 -0.202058 -0.143062 5549
0.005 0.165 -0.267973 -2.82371 -0.187716 -0.129068 5518
0.005 0.17 -0.267973 -2.72325 -0.173853 -0.11555 5473
0.005 0.175 -0.267973 -2.61231 -0.160515 -0.10256 5403
0.005 0.18 -0.267973 -2.49135 -0.147756 -0.0901507 5383
0.005 0.185 -0.267973 -2.36083 -0.135619 -0.0783699 5325
0.005 0.19 -0.267973 -2.22128 -0.124163 -0.0672645 5295
0.005 0.195 -0.267973 -2.07324 -0.113431 -0.0568784 5278
0.005 0.2 -0.267973 -1.91729 -0.103449 -0.0472524 5229
0.005 0.205 -0.267973 -1.75406 -0.094282 -0.0384247 5206
0.005 0.21 -0.267973 -1.58418 -0.0859318 -0.03043 5156
0.005 0.215 -0.267973 -1.40834 -0.0784418 -0.0232999 5086
0.005 0.22 -0.267973 -1.22721 -0.0718546 -0.0170626 5064
0.005 0.225 -0.267973 -1.04152 -0.0661911 -0.0117426 5062
0.005 0.23 -0.267973 -0.851993 -0.0614543 -0.00736089 5039
0.005 0.235 -0.267973 -0.659387 -0.0576737 -0.00393487 5031
0.005 0.24 -0.267973 -0.464457 -0.0548649 -0.00147801 5025
0.005 0.245 -0.267973 -0.267973 -0.0530339 -8.41233e-10 4975
0.005 0.25 -0.267973 -0.0707108 -0.0521821 0.000493318 4906
0.005 0.255 -0.267973 0.126551 -0.0523205 8.41232e-10 4923
0.005 0.26 -0.267973 0.323035 -0.0534525 -0.00147801 4903
0.005 0.265 -0.267973 0.517965 -0.055549 -0.00393487 4863
0.005 0.27 -0.267973 0.710571 -0.0586322 -0.00736089 4821
0.005 0.275 -0.267973 0.900095 -0.0626589 -0.0117425 4851
0.005 0.28 -0.267973 1.08579 -0.0676186 -0.0170626 4814
0.005 0.285 -0.267973 1.26691 -0.0734911 -0.0232999 4776
0.005 0.29 -0.267973 1.44276 -0.080265 -0.03043 4738
0.005 0.295 -0.267973 1.61264 -0.0879035 -0.0384247 4753
0.005 0.3 -0.267973 1.77587 -0.0963752 -0.0472524 4726
0.005 0.305 -0.267973 1.93182 -0.105647 -0.0568784 4727
0.005 0.31 -0.267973 2.07986 -0.115675 -0.0672645 4670
0.005 0.315 -0.267973 2.21941 -0.126431 -0.0783699 4658
0.005 0.32 -0.267973 2.34993 -0.137855 -0.0901507 4712
0.005 0.325 -0.267973 2.47089 -0.149901 -0.10256 4672
0.005 0.33 -0.267973 2.58182 -0.162534 -0.11555 4625
0.005 0.335 -0.267973 2.68229 -0.175694 -0.129068 4627
0.005 0.34 -0.267973 2.77189 -0.18933 -0.143062 4593
0.005 0.345 -0.267973 2.85027 -0.203389 -0.157476 4608
0.005 0.35 -0.267973 2.91712 -0.217806 -0.172252 4607
0.005 0.355 -0.267973 2.97218 -0.232529 -0.187334 4601
0.005 0.36 -0.267973 3.01524 -0.247498 -0.202661 4592
0.005 0.365 -0.267973 3.04611 -0.262651 -0.218173 4585
0.005 0.37 -0.267973 3.06468 -0.277928 -0.233809 4539
0.005 0.375 -0.267973 3.07088 -0.293267 -0.249507 4497
0.005 0.38 -0.267973 3.06468 -0.308606 -0.265204 4519
0.005 0.385 -0.267973 3.04611 -0.323882 -0.28084 4525
0.005 0.39 -0.267973 3.01524 -0.339037 -0.296352 4538
0.005 0.395 -0.267973 2.97218 -0.354003 -0.311679 4537
0.005 0.4 -0.267973 2.91712 -0.36873 -0.326761 4503
0.005 0.405 -0.267973 2.85027 -0.383144 -0.341538 4508
0.005 0.41 -0.267973 2.77189 -0.397204 -0.355951 4459
0.005 0.415 -0.267973 2.68229 -0.410835 -0.369945 4453
0.005 0.42 -0.267973 2.58182 -0.424 -0.383463 4436
0.005 0.425 -0.267973 2.47089 -0.436632 -0.396453 4452
0.005 0.43 -0.267973 2.34993 -0.448677 -0.408863 4449
0.005 0.435 -0.267973 2.21941 -0.460105 -0.420643 4437
0.005 0.44 -0.267973 2.07986 -0.47086 -0.431749 4425
0.005 0.445 -0.267973 1.93182 -0.480887 -0.442135 4437
0.005 0.45 -0.267973 1.77587 -0.490159 -0.451761 4444
0.005 0.455 -0.267973 1.61264 -0.49863 -0.460589 4434
0.005 0.46 -0.267973 1.44276 -0.50627 -0.468583 4434
0.005 0.465 -0.267973 1.26691 -0.513043 -0.475713 4452
0.005 0.47 -0.267973 1.08579 -0.518918 -0.481951 4481
0.005 0.475 -0.267973 0.900095 -0.523875 -0.487271 4451
0.005 0.48 -0.267973 0.710572 -0.527902 -0.491652 4430
0.005 0.485 -0.267973 0.517965 -0.530982 -0.495079 4457
0.005 0.49 -0.267973 0.323036 -0.533083 -0.497535 4433
0.005 0.495 -0.267973 0.126552 -0.534213 -0.499013 4439
0.005 0.5 -0.267973 -0.0707103 -0.534352 -0.499507 4418
0.005 0.505 -0.267973 -0.267973 -0.533502 -0.499013 4439
0.005 0.51 -0.267973 -0.464456 -0.531671 -0.497535 4433
0.005 0.515 -0.267973 -0.659386 -0.528862 -0.495079 4455
0.005 0.52 -0.267973 -0.851993 -0.52508 -0.491652 4432
0.005 0.525 -0.267973 -1.04152 -0.520338 -0.487271 4451
0.005 0.53 -0.267973 -1.22721 -0.514672 -0.481951 4481
0.005 0.535 -0.267973 -1.40834 -0.508087 -0.475713 4452
0.005 0.54 -0.267973 -1.58418 -0.500604 -0.468583 4434
0.005 0.545 -0.267973 -1.75406 -0.492251 -0.460589 4434
0.005 0.55 -0.267973 -1.91729 -0.483084 -0.451761 4442
0.005 0.555 -0.267973 -2.07324 -0.473095 -0.442135 4440
0.005 0.56 -0.267973 -2.22128 -0.462367 -0.431749 4425
0.005 0.565 -0.267973 -2.36083 -0.450916 -0.420643 4437
0.005 0.57 -0.267973 -2.49135 -0.438778 -0.408863 4449
0.005 0.575 -0.267973 -2.61231 -0.42602 -0.396453 4454
0.005 0.58 -0.267973 -2.72324 -0.412684 -0.383463 4436
0.005 0.585 -0.267973 -2.82371 -0.398815 -0.369945 4451
0.005 0.59 -0.267973 -2.91331 -0.384476 -0.355952 4461
0.005 0.595 -0.267973 -2.99169 -0.369712 -0.341538 4508
0.005 0.6 -0.267973 -3.05854 -0.354582 -0.326761 4503
0.005 0.605 -0.267973 -3.1136 -0.339154 -0.311679 4537
0.005 0.61 -0.267973 -3.15666 -0.323479 -0.296352 4538
0.005 0.615 -0.267973 -3.18753 -0.307618 -0.28084 4525
0.005 0.62 -0.267973 -3.2061 -0.291634 -0.265204 4517
0.005 0.625 -0.267973 -3.2123 -0.275588 -0.249507 4498
0.005 0.63 -0.267973 -3.2061 -0.259542 -0.233809 4539
0.005 0.635 -0.267973 -3.18753 -0.243557 -0.218173 4585
0.005 0.64 -0.267973 -3.15666 -0.227698 -0.202661 4592
0.005 0.645 -0.267973 -3.1136 -0.212023 -0.187334 4601
0.005 0.65 -0.267973 -3.05854 -0.19659 -0.172252 4607
0.005 0.655 -0.267973 -2.99169 -0.181466 -0.157476 4606
0.005 0.66 -0.267973 -2.91331 -0.166707 -0.143062 4595
0.005 0.665 -0.267973 -2.82371 -0.152361 -0.129068 4627
0.005 0.67 -0.267973 -2.72325 -0.13849 -0.11555 4625
0.005 0.675 -0.267973 -2.61231 -0.125159 -0.10256 4672
0.005 0.68 -0.267973 -2.49135 -0.112402 -0.0901507 4712
0.005 0.685 -0.267973 -2.36083 -0.10027 -0.0783699 4658
0.005 0.69 -0.267973 -2.22128 -0.0888045 -0.0672645 4668
0.005 0.695 -0.267973 -2.07324 -0.0780666 -0.0568784 4729
0.005 0.7 -0.267973 -1.91729 -0.0681039 -0.0472525 4726
0.005 0.705 -0.267973 -1.75406 -0.0589167 -0.0384247 4753
0.005 0.71 -0.267973 -1.58418 -0.0505801 -0.03043 4737
0.005 0.715 -0.267973 -1.40834 -0.0430916 -0.0232999 4776
0.005 0.72 -0.267973 -1.22721 -0.0365026 -0.0170626 4814
0.005 0.725 -0.267973 -1.04152 -0.0308218 -0.0117426 4849
0.005 0.73 -0.267973 -0.851993 -0.0260968 -0.0073609 4823
0.005 0.735 -0.267973 -0.659387 -0.0223173 -0.00393488 4863
0.005 0.74 -0.267973 -0.464457 -0.0195068 -0.00147801 4903
0.005 0.745 -0.267973 -0.267973 -0.0176752 -2.5237e-09 4923
0.005 0.75 -0.267973 -0.0707112 -0.0168388 0.000493318 4906
0.005 0.755 -0.267973 0.126551 -0.0169767 2.5237e-09 4975
0.005 0.76 -0.267973 0.323035 -0.0181022 -0.001478 5023
0.005 0.765 -0.267973 0.517965 -0.0201969 -0.00393486 5033
0.005 0.77 -0.267973 0.710571 -0.0232603 -0.00736088 5038
0.005 0.775 -0.267973 0.900094 -0.0272846 -0.0117425 5062
0.005 0.78 -0.267973 1.08579 -0.0322701 -0.0170625 5064
0.005 0.785 -0.267973 1.26691 -0.038141 -0.0232999 5086
0.005 0.79 -0.267973 1.44276 -0.0449172 -0.03043 5156
0.005 0.795 -0.267973 1.61264 -0.0525482 -0.0384247 5204
0.005 0.8 -0.267973 1.77587 -0.0610334 -0.0472524 5231
0.005 0.805 -0.267973 1.93182 -0.0702979 -0.0568783 5278
0.005 0.81 -0.267973 2.07986 -0.0803201 -0.0672645 5295
0.005 0.815 -0.267973 2.21941 -0.0910651 -0.0783699 5325
0.005 0.82 -0.267973 2.34993 -0.102486 -0.0901507 5382
0.005 0.825 -0.267973 2.47089 -0.114553 -0.10256 5403
0.005 0.83 -0.267973 2.58182 -0.127184 -0.11555 5471
0.005 0.835 -0.267973 2.68229 -0.140331 -0.129068 5520
0.005 0.84 -0.267973 2.77189 -0.153978 -0.143062 5549
0.005 0.845 -0.267973 2.85027 -0.168026 -0.157476 5620
0.005 0.85 -0.267973 2.91712 -0.18245 -0.172252 5680
0.005 0.855 -0.267973 2.97218 -0.19717 -0.187334 5709
0.005 0.86 -0.267973 3.01524 -0.212143 -0.202661 5752
0.005 0.865 -0.267973 3.04611 -0.227291 -0.218173 5819
0.005 0.87 -0.267973 3.06468 -0.24257 -0.233809 5894
0.005 0.875 -0.267973 3.07088 -0.257909 -0.249507 5912
0.005 0.88 -0.267973 3.06468 -0.273248 -0.265204 6038
0.005 0.885 -0.267973 3.04611 -0.288526 -0.28084 6055
0.005 0.89 -0.267973 3.01524 -0.303678 -0.296352 6148
0.005 0.895 -0.267973 2.97218 -0.318646 -0.311679 6241
0.005 0.9 -0.267973 2.91712 -0.333369 -0.326761 6296
0.005 0.905 -0.267973 2.85027 -0.34779 -0.341538 6448
0.005 0.91 -0.267973 2.77189 -0.361845 -0.355951 6457
0.005 0.915 -0.267973 2.68229 -0.37548 -0.369945 6540
0.005 0.92 -0.267973 2.58182 -0.388647 -0.383463 6729
0.005 0.925 -0.267973 2.47089 -0.401273 -0.396453 6822
0.005 0.93 -0.267973 2.34993 -0.413323 -0.408863 6920
0.005 0.935 -0.267973 2.21941 -0.424742 -0.420643 7022
0.005 0.94 -0.267973 2.07986 -0.435487 -0.431749 7198
0.005 0.945 -0.267973 1.93182 -0.44551 -0.442135 7350
0.005 0.95 -0.267973 1.77587 -0.454781 -0.451761 7523
0.005 0.955 -0.267973 1.61264 -0.463272 -0.460589 7701
0.005 0.96 -0.267973 1.44276 -0.47089 -0.468583 7918
0.005 0.965 -0.267973 1.26691 -0.477687 -0.475713 8078
0.005 0.97 -0.267973 1.08579 -0.483569 -0.481951 8446
0.005 0.975 -0.267973 0.900095 -0.488494 -0.487271 8807
0.005 0.98 -0.267973 0.710572 -0.492532 -0.491652 9130
0.005 0.985 -0.267973 0.517966 -0.495638 -0.495078 9535
0.005 0.99 -0.267973 0.323036 -0.49773 -0.497535 8463
0.005 0.995 -0.267973 0.126552 -0.498838 -0.499013 6904
0.005 1 -0.267973 -0.07071 -0.498973 -0.499507 5814
0.01 0 -0.464457 -0.0707107 -0.567893 -0.498029 7362
0.01 0.005 -0.464457 -0.267973 -0.567042 -0.497535 8463
0.01 0.01 -0.464457 -0.464457 -0.565223 -0.496057 7527
0.01 0.015 -0.464457 -0.659386 -0.5624 -0.4936 8694
0.01 0.02 -0.464457 -0.851993 -0.558643 -0.490174 9497
0.01 0.025 -0.464457 -1.04152 -0.55387 -0.485793 9140
0.01 0.03 -0.464457 -1.22721 -0.548184 -0.480473 8805
0.01 0.035 -0.464457 -1.40834 -0.541588 -0.474235 8445
0.01 0.04 -0.464457 -1.58418 -0.534124 -0.467105 8114
0.01 0.045 -0.464457 -1.75406 -0.525793 -0.459111 7914
0.01 0.05 -0.464457 -1.91729 -0.516625 -0.450283 7703
0.01 0.055 -0.464457 -2.07324 -0.506641 -0.440657 7548
0.01 0.06 -0.464457 -2.22128 -0.495903 -0.430271 7358
0.01 0.065 -0.464457 -2.36083 -0.484441 -0.419165 7161
0.01 0.07 -0.464457 -2.49135 -0.472317 -0.407385 7040
0.01 0.075 -0.464457 -2.61231 -0.459539 -0.394975 6922
0.01 0.08 -0.464457 -2.72324 -0.446214 -0.381985 6837
0.01 0.085 -0.464457 -2.82371 -0.432348 -0.368467 6697
0.01 0.09 -0.464457 -2.91331 -0.418005 -0.354474 6558
0.01 0.095 -0.464457 -2.99169 -0.403241 -0.34006 6520
0.01 0.1 -0.464457 -3.05854 -0.388112 -0.325283 6402
0.01 0.105 -0.464457 -3.1136 -0.372677 -0.310201 6278
0.01 0.11 -0.464457 -3.15666 -0.357005 -0.294874 6285
0.01 0.115 -0.464457 -3.18753 -0.341146 -0.279362 6121
0.01 0.12 -0.464457 -3.2061 -0.32516 -0.263726 6134
0.01 0.125 -0.464457 -3.2123 -0.309115 -0.248029 6047
0.01 0.13 -0.464457 -3.2061 -0.293068 -0.232331 5908
0.01 0.135 -0.464457 -3.18753 -0.277084 -0.216695 5887
0.01 0.14 -0.464457 -3.15666 -0.261224 -0.201183 5826
0.01 0.145 -0.464457 -3.1136 -0.245548 -0.185856 5777
0.01 0.15 -0.464457 -3.05854 -0.230118 -0.170774 5745
0.01 0.155 -0.464457 -2.99169 -0.214991 -0.155998 5662
0.01 0.16 -0.464457 -2.91331 -0.200228 -0.141584 5629
0.01 0.165 -0.464457 -2.82371 -0.185885 -0.12759 5582
0.01 0.17 -0.464457 -2.72325 -0.172022 -0.114072 5579
0.01 0.175 -0.464457 -2.61231 -0.158683 -0.101082 5518
0.01 0.18 -0.464457 -2.49135 -0.145925 -0.0886727 5431
0.01 0.185 -0.464457 -2.36083 -0.133787 -0.0768919 5419
0.01 0.19 -0.464457 -2.22128 -0.122332 -0.0657865 5397
0.01 0.195 -0.464457 -2.07324 -0.111601 -0.0554004 5330
0.01 0.2 -0.464457 -1.91729 -0.101618 -0.0457744 5323
0.01 0.205 -0.464457 -1.75406 -0.0924515 -0.0369467 5306
0.01 0.21 -0.464457 -1.58418 -0.0841005 -0.028952 5209
0.01 0.215 -0.464457 -1.40834 -0.0766115 -0.0218219 5185
0.01 0.22 -0.464457 -1.22721 -0.0700229 -0.0155846 5147
0.01 0.225 -0.464457 -1.04152 -0.0643608 -0.0102646 5106
0.01 0.23 -0.464457 -0.851993 -0.0596226 -0.00588289 5089
0.01 0.235 -0.464457 -0.659387 -0.0558423 -0.00245687 5082
0.01 0.24 -0.464457 -0.464457 -0.0530338 -1.67915e-09 5046
0.01 0.245 -0.464457 -0.267973 -0.0512028 0.00147801 5021
0.01 0.25 -0.464457 -0.0707108 -0.0503513 0.00197132 5006
0.01 0.255 -0.464457 0.126551 -0.0504892 0.00147801 5007
0.01 0.26 -0.464457 0.323035 -0.0516199 1.67915e-09 4958
0.01 0.265 -0.464457 0.517965 -0.0537199 -0.00245686 4955
0.01 0.27 -0.464457 0.710571 -0.0568021 -0.00588288 4925
0.01 0.275 -0.464457 0.900095 -0.0608284 -0.0102645 4879
0.01 0.28 -0.464457 1.08579 -0.0657872 -0.0155845 4815
0.01 0.285 -0.464457 1.26691 -0.0716601 -0.0218219 4859
0.01 0.29 -0.464457 1.44276 -0.0784344 -0.028952 4845
0.01 0.295 -0.464457 1.61264 -0.0860725 -0.0369467 4829
0.01 0.3 -0.464457 1.77587 -0.0945439 -0.0457744 4778
0.01 0.305 -0.464457 1.93182 -0.103816 -0.0554004 4795
0.01 0.31 -0.464457 2.07986 -0.113843 -0.0657865 4795
0.01 0.315 -0.464457 2.21941 -0.124599 -0.0768919 4733
0.01 0.32 -0.464457 2.34993 -0.136023 -0.0886727 4727
0.01 0.325 -0.464457 2.47089 -0.14807 -0.101082 4665
0.01 0.33 -0.464457 2.58182 -0.160702 -0.114072 4686
0.01 0.335 -0.464457 2.68229 -0.173863 -0.12759 4692
0.01 0.34 -0.464457 2.77189 -0.187498 -0.141584 4664
0.01 0.345 -0.464457 2.85027 -0.201558 -0.155998 4681
0.01 0.35 -0.464457 2.91712 -0.215974 -0.170774 4633
0.01 0.355 -0.464457 2.97218 -0.230698 -0.185856 4582
0.01 0.36 -0.464457 3.01524 -0.245666 -0.201183 4610
0.01 0.365 -0.464457 3.04611 -0.26082 -0.216695 4616
0.01 0.37 -0.464457 3.06468 -0.276097 -0.232331 4624
0.01 0.375 -0.464457 3.07088 -0.291436 -0.248029 4612
0.01 0.38 -0.464457 3.06468 -0.306775 -0.263726 4549
0.01 0.385 -0.464457 3.04611 -0.322051 -0.279362 4546
0.01 0.39 -0.464457 3.01524 -0.337206 -0.294874 4506
0.01 0.395 -0.464457 2.97218 -0.352172 -0.310201 4517
0.01 0.4 -0.464457 2.91712 -0.366899 -0.325283 4521
0.01 0.405 -0.464457 2.85027 -0.381313 -0.34006 4552
0.01 0.41 -0.464457 2.77189 -0.395373 -0.354473 4559
0.01 0.415 -0.464457 2.68229 -0.409004 -0.368467 4534
0.01 0.42 -0.464457 2.58182 -0.42217 -0.381985 4519
0.01 0.425 -0.464457 2.47089 -0.434801 -0.394975 4529
0.01 0.43 -0.464457 2.34993 -0.446846 -0.407385 4517
0.01 0.435 -0.464457 2.21941 -0.458275 -0.419165 4504
0.01 0.44 -0.464457 2.07986 -0.469027 -0.430271 4467
0.01 0.445 -0.464457 1.93182 -0.479056 -0.440657 4477
0.01 0.45 -0.464457 1.77587 -0.488328 -0.450283 4486
0.01 0.455 -0.464457 1.61264 -0.496798 -0.459111 4457
0.01 0.46 -0.464457 1.44276 -0.504439 -0.467105 4441
0.01 0.465 -0.464457 1.26691 -0.511213 -0.474235 4431
0.01 0.47 -0.464457 1.08579 -0.517086 -0.480473 4452
0.01 0.475 -0.464457 0.900095 -0.522045 -0.485793 4457
0.01 0.48 -0.464457 0.710572 -0.526071 -0.490174 4492
0.01 0.485 -0.464457 0.517965 -0.529151 -0.4936 4476
0.01 0.49 -0.464457 0.323036 -0.531251 -0.496057 4411
0.01 0.495 -0.464457 0.126552 -0.532382 -0.497535 4430
0.01 0.5 -0.464457 -0.0707103 -0.532521 -0.498029 4458
0.01 0.505 -0.464457 -0.267973 -0.53167 -0.497535 4430
0.01 0.51 -0.464457 -0.464456 -0.529839 -0.496057 4411
0.01 0.515 -0.464457 -0.659386 -0.527031 -0.4936 4474
0.01 0.52 -0.464457 -0.851993 -0.523249 -0.490174 4494
0.01 0.525 -0.464457 -1.04152 -0.518507 -0.485793 4457
0.01 0.53 -0.464457 -1.22721 -0.512841 -0.480473 4452
0.01 0.535 -0.464457 -1.40834 -0.506258 -0.474235 4431
0.01 0.54 -0.464457 -1.58418 -0.498773 -0.467105 4441
0.01 0.545 -0.464457 -1.75406 -0.490421 -0.459111 4457
0.01 0.55 -0.464457 -1.91729 -0.481253 -0.450283 4484
0.01 0.555 -0.464457 -2.07324 -0.471264 -0.440657 4479
0.01 0.56 -0.464457 -2.22128 -0.460538 -0.430271 4467
0.01 0.565 -0.464457 -2.36083 -0.449085 -0.419165 4504
0.01 0.57 -0.464457 -2.49135 -0.436947 -0.407385 4517
0.01 0.575 -0.464457 -2.61231 -0.424189 -0.394975 4529
0.01 0.58 -0.464457 -2.72324 -0.41085 -0.381985 4519
0.01 0.585 -0.464457 -2.82371 -0.396984 -0.368467 4532
0.01 0.59 -0.464457 -2.91331 -0.382645 -0.354474 4561
0.01 0.595 -0.464457 -2.99169 -0.36788 -0.34006 4552
0.01 0.6 -0.464457 -3.05854 -0.352752 -0.325283 4521
0.01 0.605 -0.464457 -3.1136 -0.337323 -0.310201 4517
0.01 0.61 -0.464457 -3.15666 -0.321648 -0.294874 4506
0.01 0.615 -0.464457 -3.18753 -0.305787 -0.279362 4546
0.01 0.62 -0.464457 -3.2061 -0.289803 -0.263726 4547
0.01 0.625 -0.464457 -3.2123 -0.273757 -0.248029 4614
0.01 0.63 -0.464457 -3.2061 -0.257711 -0.232331 4624
0.01 0.635 -0.464457 -3.18753 -0.241726 -0.216695 4616
0.01 0.64 -0.464457 -3.15666 -0.225867 -0.201183 4610
0.01 0.645 -0.464457 -3.1136 -0.210192 -0.185856 4582
0.01 0.65 -0.464457 -3.05854 -0.194759 -0.170774 4633
0.01 0.655 -0.464457 -2.99169 -0.179636 -0.155998 4679
0.01 0.66 -0.464457 -2.91331 -0.164875 -0.141584 4666
0.01 0.665 -0.464457 -2.82371 -0.150529 -0.12759 4692
0.01 0.67 -0.464457 -2.72325 -0.136659 -0.114072 4686
0.01 0.675 -0.464457 -2.61231 -0.123329 -0.101082 4665
0.01 0.68 -0.464457 -2.49135 -0.11057 -0.0886727 4727
0.01 0.685 -0.464457 -2.36083 -0.0984391 -0.0768919 4733
0.01 0.69 -0.464457 -2.22128 -0.086973 -0.0657865 4793
0.01 0.695 -0.464457 -2.07324 -0.0762352 -0.0554004 4797
0.01 0.7 -0.464457 -1.91729 -0.0662728 -0.0457744 4778
0.01 0.705 -0.464457 -1.75406 -0.057087 -0.0369467 4829
0.01 0.71 -0.464457 -1.58418 -0.0487492 -0.028952 4845
0.01 0.715 -0.464457 -1.40834 -0.0412621 -0.0218219 4859
0.01 0.72 -0.464457 -1.22721 -0.0346721 -0.0155846 4815
0.01 0.725 -0.464457 -1.04152 -0.0289908 -0.0102646 4877
0.01 0.73 -0.464457 -0.851993 -0.0242645 -0.00588289 4927
0.01 0.735 -0.464457 -0.659387 -0.0204851 -0.00245687 4955
0.01 0.74 -0.464457 -0.464457 -0.0176748 -5.03744e-09 4958
0.01 0.745 -0.464457 -0.267973 -0.0158431 0.001478 5007