TITLE="Pressure integrated from Omni2D"
VARIABLES = "X","Y","Dudt","DvDt","Pcal","Preal","Count"
ZONE I=201, J=201
0 0 -0.1 -0.1 -0.540157 -0.5 1326
0 0.005 -0.1 -0.29725 -0.539149 -0.499507 5814
0 0.01 -0.1 -0.493697 -0.537191 -0.498029 7362
0 0.015 -0.1 -0.688565 -0.534252 -0.495572 7008
0 0.02 -0.1 -0.881085 -0.530333 -0.492146 6664
0 0.025 -0.1 -1.0705 -0.525449 -0.487764 6417
0 0.03 -0.1 -1.25605 -0.519618 -0.482444 6151
0 0.035 -0.1 -1.43702 -0.512895 -0.476207 5970
0 0.04 -0.1 -1.61269 -0.505256 -0.469077 5856
0 0.045 -0.1 -1.78235 -0.496783 -0.461082 5681
0 0.05 -0.1 -1.94535 -0.48745 -0.452254 5558
0 0.055 -0.1 -2.10104 -0.477325 -0.442628 5415
0 0.06 -0.1 -2.2488 -0.466454 -0.432242 5324
0 0.065 -0.1 -2.38804 -0.454859 -0.421137 5208
0 0.07 -0.1 -2.51823 -0.442592 -0.409356 5097
0 0.075 -0.1 -2.63884 -0.429708 -0.396946 5058
0 0.08 -0.1 -2.74939 -0.416237 -0.383957 4957
0 0.085 -0.1 -2.84945 -0.402244 -0.370438 4856
0 0.09 -0.1 -2.93863 -0.387774 -0.356445 4846
0 0.095 -0.1 -3.01656 -0.372886 -0.342031 4751
0 0.1 -0.1 -3.08294 -0.357633 -0.327254 4664
0 0.105 -0.1 -3.1375 -0.342082 -0.312172 4690
0 0.11 -0.1 -3.18003 -0.326289 -0.296845 4550
0 0.115 -0.1 -3.21036 -0.310314 -0.281333 4561
0 0.12 -0.1 -3.22837 -0.294217 -0.265698 4457
0 0.125 -0.1 -3.23398 -0.278061 -0.25 4439
0 0.13 -0.1 -3.22717 -0.261909 -0.234302 4400
0 0.135 -0.1 -3.20796 -0.245819 -0.218667 4352
0 0.14 -0.1 -3.17643 -0.229858 -0.203155 4309
0 0.145 -0.1 -3.1327 -0.214084 -0.187828 4265
0 0.15 -0.1 -3.07693 -0.198565 -0.172746 4242
0 0.155 -0.1 -3.00936 -0.183344 -0.157969 4232
0 0.16 -0.1 -2.93023 -0.168498 -0.143555 4119
0 0.165 -0.1 -2.83986 -0.154076 -0.129562 4159
0 0.17 -0.1 -2.73861 -0.140124 -0.116043 4085
0 0.175 -0.1 -2.62687 -0.126717 -0.103054 4075
0 0.18 -0.1 -2.50507 -0.113879 -0.090644 4084
0 0.185 -0.1 -2.3737 -0.101692 -0.0788632 4024
0 0.19 -0.1 -2.23328 -0.090172 -0.0677579 4028
0 0.195 -0.1 -2.08434 -0.0793707 -0.0573717 3921
0 0.2 -0.1 -1.92748 -0.0693513 -0.0477458 3905
0 0.205 -0.1 -1.76332 -0.0601273 -0.038918 3910
0 0.21 -0.1 -1.59249 -0.0517232 -0.0309233 3867
0 0.215 -0.1 -1.41567 -0.0442116 -0.0237932 3846
0 0.22 -0.1 -1.23355 -0.0375735 -0.0175559 3863
0 0.225 -0.1 -1.04685 -0.0318829 -0.0122359 3827
0 0.23 -0.1 -0.856294 -0.0271218 -0.00785421 3851
0 0.235 -0.1 -0.662639 -0.0233356 -0.00442819 3772
0 0.24 -0.1 -0.466643 -0.0205127 -0.00197133 3762
0 0.245 -0.1 -0.269075 -0.0186559 -0.000493319 3762
0 0.25 -0.1 -0.0707108 -0.0178148 -3.60822e-16 3726
0 0.255 -0.1 0.127671 -0.0179648 -0.000493317 3691
0 0.26 -0.1 0.325291 -0.0190811 -0.00197132 3708
0 0.265 -0.1 0.521374 -0.021203 -0.00442818 3704
0 0.27 -0.1 0.715151 -0.0243072 -0.00785421 3658
0 0.275 -0.1 0.905861 -0.0283463 -0.0122359 3642
0 0.28 -0.1 1.09275 -0.0333484 -0.0175559 3647
0 0.285 -0.1 1.2751 -0.0392689 -0.0237932 3627
0 0.29 -0.1 1.45218 -0.0460941 -0.0309233 3635
0 0.295 -0.1 1.62331 -0.0537831 -0.038918 3608
0 0.3 -0.1 1.7878 -0.0622951 -0.0477457 3598
0 0.305 -0.1 1.94503 -0.0716286 -0.0573717 3577
0 0.31 -0.1 2.09436 -0.0817372 -0.0677578 3599
0 0.315 -0.1 2.23522 -0.0925543 -0.0788632 3526
0 0.32 -0.1 2.36706 -0.104067 -0.090644 3552
0 0.325 -0.1 2.48935 -0.116198 -0.103054 3546
0 0.33 -0.1 2.60163 -0.12893 -0.116043 3553
0 0.335 -0.1 2.70345 -0.142195 -0.129562 3537
0 0.34 -0.1 2.79442 -0.155938 -0.143555 3520
0 0.345 -0.1 2.87419 -0.170107 -0.157969 3496
0 0.35 -0.1 2.94243 -0.184653 -0.172746 3465
0 0.355 -0.1 2.9989 -0.199508 -0.187828 3430
0 0.36 -0.1 3.04337 -0.214613 -0.203155 3484
0 0.365 -0.1 3.07567 -0.22991 -0.218667 3470
0 0.37 -0.1 3.09568 -0.245338 -0.234302 3456
0 0.375 -0.1 3.10332 -0.260834 -0.25 3456
0 0.38 -0.1 3.09858 -0.276339 -0.265698 3435
0 0.385 -0.1 3.08147 -0.291789 -0.281333 3426
0 0.39 -0.1 3.05207 -0.307123 -0.296845 3415
0 0.395 -0.1 3.0105 -0.32228 -0.312172 3400
0 0.4 -0.1 2.95693 -0.337198 -0.327254 3405
0 0.405 -0.1 2.89158 -0.351818 -0.342031 3423
0 0.41 -0.1 2.8147 -0.366084 -0.356445 3454
0 0.415 -0.1 2.72661 -0.379938 -0.370438 3452
0 0.42 -0.1 2.62767 -0.393326 -0.383957 3376
0 0.425 -0.1 2.51826 -0.406187 -0.396946 3386
0 0.43 -0.1 2.39882 -0.418481 -0.409356 3410
0 0.435 -0.1 2.26984 -0.430149 -0.421137 3394
0 0.44 -0.1 2.13183 -0.441155 -0.432242 3416
0 0.445 -0.1 1.98533 -0.451446 -0.442628 3353
0 0.45 -0.1 1.83094 -0.46099 -0.452254 3341
0 0.455 -0.1 1.66926 -0.469745 -0.461082 3379
0 0.46 -0.1 1.50094 -0.477671 -0.469077 3348
0 0.465 -0.1 1.32665 -0.484741 -0.476207 3357
0 0.47 -0.1 1.14709 -0.490926 -0.482444 3363
0 0.475 -0.1 0.96296 -0.496193 -0.487764 3343
0 0.48 -0.1 0.775004 -0.500533 -0.492146 3309
0 0.485 -0.1 0.583965 -0.503933 -0.495572 3336
0 0.49 -0.1 0.390605 -0.506372 -0.498029 3370
0 0.495 -0.1 0.195692 -0.507837 -0.499507 3378
0 0.5 -0.1 3.34035e-07 -0.508326 -0.5 3376
0 0.505 -0.1 -0.195691 -0.507837 -0.499507 3378
0 0.51 -0.1 -0.390605 -0.506372 -0.498029 3370
0 0.515 -0.1 -0.583965 -0.503933 -0.495572 3334
0 0.52 -0.1 -0.775003 -0.500534 -0.492146 3311
0 0.525 -0.1 -0.962959 -0.496192 -0.487764 3343
0 0.53 -0.1 -1.14709 -0.490925 -0.482444 3363
0 0.535 -0.1 -1.32665 -0.484741 -0.476207 3357
0 0.54 -0.1 -1.50094 -0.477669 -0.469077 3348
0 0.545 -0.1 -1.66926 -0.469746 -0.461082 3379
0 0.55 -0.1 -1.83094 -0.46099 -0.452254 3339
0 0.555 -0.1 -1.98533 -0.451446 -0.442628 3355
0 0.56 -0.1 -2.13183 -0.441156 -0.432242 3415
0 0.565 -0.1 -2.26984 -0.430149 -0.421137 3394
0 0.57 -0.1 -2.39882 -0.418481 -0.409356 3410
0 0.575 -0.1 -2.51826 -0.406186 -0.396946 3386
0 0.58 -0.1 -2.62767 -0.393325 -0.383957 3374
0 0.585 -0.1 -2.72661 -0.379938 -0.370438 3450
0 0.59 -0.1 -2.8147 -0.366084 -0.356445 3454
0 0.595 -0.1 -2.89157 -0.351818 -0.342031 3423
0 0.6 -0.1 -2.95693 -0.337198 -0.327254 3405
0 0.605 -0.1 -3.0105 -0.32228 -0.312173 3400
0 0.61 -0.1 -3.05207 -0.307123 -0.296845 3415
0 0.615 -0.1 -3.08147 -0.291789 -0.281333 3426
0 0.62 -0.1 -3.09858 -0.276339 -0.265698 3434
0 0.625 -0.1 -3.10332 -0.260834 -0.25 3458
0 0.63 -0.1 -3.09568 -0.245338 -0.234302 3456
0 0.635 -0.1 -3.07567 -0.22991 -0.218667 3470
0 0.64 -0.1 -3.04337 -0.214612 -0.203155 3484
0 0.645 -0.1 -2.9989 -0.199508 -0.187828 3430
0 0.65 -0.1 -2.94243 -0.184654 -0.172746 3465
0 0.655 -0.1 -2.87419 -0.170106 -0.157969 3494
0 0.66 -0.1 -2.79442 -0.155938 -0.143555 3520
0 0.665 -0.1 -2.70345 -0.142196 -0.129562 3537
0 0.67 -0.1 -2.60163 -0.12893 -0.116043 3553
0 0.675 -0.1 -2.48935 -0.116211 -0.103054 3546
0 0.68 -0.1 -2.36706 -0.104069 -0.090644 3552
0 0.685 -0.1 -2.23522 -0.0925542 -0.0788632 3526
0 0.69 -0.1 -2.09436 -0.081738 -0.0677579 3597
0 0.695 -0.1 -1.94503 -0.071629 -0.0573717 3579
0 0.7 -0.1 -1.7878 -0.0623008 -0.0477458 3598
0 0.705 -0.1 -1.62331 -0.0537827 -0.038918 3608
0 0.71 -0.1 -1.45218 -0.0460941 -0.0309233 3635
0 0.715 -0.1 -1.2751 -0.0392692 -0.0237933 3628
0 0.72 -0.1 -1.09276 -0.0333488 -0.0175559 3647
0 0.725 -0.1 -0.905861 -0.0283463 -0.0122359 3640
0 0.73 -0.1 -0.715152 -0.0243068 -0.00785422 3660
0 0.735 -0.1 -0.521375 -0.021204 -0.00442819 3704
0 0.74 -0.1 -0.325292 -0.0190816 -0.00197133 3708
0 0.745 -0.1 -0.127671 -0.0179636 -0.00049332 3691
0 0.75 -0.1 0.0707102 -0.017821 -3.21965e-15 3726
0 0.755 -0.1 0.269074 -0.0186616 -0.000493315 3762
0 0.76 -0.1 0.466642 -0.0205145 -0.00197132 3760
0 0.765 -0.1 0.662638 -0.0233344 -0.00442818 3775
0 0.77 -0.1 0.856293 -0.0271225 -0.0078542 3851
0 0.775 -0.1 1.04685 -0.0318841 -0.0122359 3827
0 0.78 -0.1 1.23355 -0.0375741 -0.0175559 3863
0 0.785 -0.1 1.41567 -0.0442115 -0.0237932 3846
0 0.79 -0.1 1.59249 -0.0517228 -0.0309233 3867
0 0.795 -0.1 1.76332 -0.0601277 -0.038918 3908
0 0.8 -0.1 1.92748 -0.0693519 -0.0477457 3907
0 0.805 -0.1 2.08434 -0.0793709 -0.0573717 3921
0 0.81 -0.1 2.23328 -0.0901711 -0.0677578 4028
0 0.815 -0.1 2.3737 -0.101693 -0.0788632 4024
0 0.82 -0.1 2.50507 -0.113895 -0.090644 4084
0 0.825 -0.1 2.62687 -0.126716 -0.103054 4075
0 0.83 -0.1 2.73861 -0.140122 -0.116043 4083
0 0.835 -0.1 2.83986 -0.154075 -0.129562 4161
0 0.84 -0.1 2.93023 -0.168491 -0.143555 4119
0 0.845 -0.1 3.00936 -0.183344 -0.157969 4232
0 0.85 -0.1 3.07693 -0.198565 -0.172746 4242
0 0.855 -0.1 3.1327 -0.214083 -0.187827 4265
0 0.86 -0.1 3.17643 -0.229856 -0.203155 4309
0 0.865 -0.1 3.20796 -0.245819 -0.218667 4350
0 0.87 -0.1 3.22717 -0.261909 -0.234302 4402
0 0.875 -0.1 3.23398 -0.278061 -0.25 4439
0 0.88 -0.1 3.22837 -0.294217 -0.265698 4457
0 0.885 -0.1 3.21036 -0.310314 -0.281333 4561
0 0.89 -0.1 3.18003 -0.326289 -0.296845 4550
0 0.895 -0.1 3.1375 -0.342082 -0.312172 4690
0 0.9 -0.1 3.08294 -0.357634 -0.327254 4662
0 0.905 -0.1 3.01656 -0.372885 -0.342031 4753
0 0.91 -0.1 2.93863 -0.387775 -0.356445 4846
0 0.915 -0.1 2.84945 -0.402244 -0.370438 4856
0 0.92 -0.1 2.74939 -0.416235 -0.383957 4957
0 0.925 -0.1 2.63884 -0.429711 -0.396946 5058
0 0.93 -0.1 2.51823 -0.442596 -0.409356 5097
0 0.935 -0.1 2.38805 -0.454862 -0.421137 5206
0 0.94 -0.1 2.2488 -0.466456 -0.432242 5326
0 0.945 -0.1 2.10104 -0.477327 -0.442628 5415
0 0.95 -0.1 1.94535 -0.487449 -0.452254 5557
0 0.955 -0.1 1.78235 -0.496779 -0.461082 5681
0 0.96 -0.1 1.61269 -0.505257 -0.469077 5857
0 0.965 -0.1 1.43702 -0.512892 -0.476207 5970
0 0.97 -0.1 1.25605 -0.519615 -0.482444 6149
0 0.975 -0.1 1.0705 -0.525402 -0.487764 6419
0 0.98 -0.1 0.881086 -0.530291 -0.492146 6664
0 0.985 -0.1 0.688565 -0.534245 -0.495572 7008
0 0.99 -0.1 0.493697 -0.537193 -0.498029 7362
0 0.995 -0.1 0.297251 -0.539155 -0.499507 5814
0 1 -0.1 0.100001 -0.540157 -0.5 1326
0.005 0 -0.29725 -0.1 -0.53915 -0.499507 5814
0.005 0.005 -0.29725 -0.29725 -0.538168 -0.499013 6905
0.005 0.01 -0.29725 -0.493697 -0.5362 -0.497535 8463
0.005 0.015 -0.29725 -0.688565 -0.533254 -0.495079 9535
0.005 0.02 -0.29725 -0.881085 -0.529305 -0.491652 9130
0.005 0.025 -0.29725 -1.0705 -0.524442 -0.487271 8805
0.005 0.03 -0.29725 -1.25605 -0.518637 -0.481951 8448
0.005 0.035 -0.29725 -1.43702 -0.511904 -0.475713 8078
0.005 0.04 -0.29725 -1.61269 -0.504256 -0.468583 7918
0.005 0.045 -0.29725 -1.78235 -0.495786 -0.460589 7700
0.005 0.05 -0.29725 -1.94535 -0.486451 -0.451761 7523
0.005 0.055 -0.29725 -2.10104 -0.476336 -0.442135 7350
0.005 0.06 -0.29725 -2.2488 -0.465462 -0.431749 7196
0.005 0.065 -0.29725 -2.38804 -0.453872 -0.420643 7024
0.005 0.07 -0.29725 -2.51823 -0.441609 -0.408863 6920
0.005 0.075 -0.29725 -2.63884 -0.428718 -0.396453 6822
0.005 0.08 -0.29725 -2.74939 -0.415245 -0.383463 6729
0.005 0.085 -0.29725 -2.84945 -0.401252 -0.369945 6540
0.005 0.09 -0.29725 -2.93863 -0.38678 -0.355952 6457
0.005 0.095 -0.29725 -3.01656 -0.371889 -0.341538 6446
0.005 0.1 -0.29725 -3.08294 -0.356643 -0.326761 6297
0.005 0.105 -0.29725 -3.1375 -0.34109 -0.311679 6241
0.005 0.11 -0.29725 -3.18003 -0.325296 -0.296352 6148
0.005 0.115 -0.29725 -3.21036 -0.30932 -0.28084 6055
0.005 0.12 -0.29725 -3.22837 -0.293224 -0.265204 6038
0.005 0.125 -0.29725 -3.23398 -0.277068 -0.249507 5912
0.005 0.13 -0.29725 -3.22717 -0.260916 -0.233809 5892
0.005 0.135 -0.29725 -3.20796 -0.244828 -0.218173 5821
0.005 0.14 -0.29725 -3.17643 -0.228868 -0.202661 5752
0.005 0.145 -0.29725 -3.1327 -0.213095 -0.187334 5709
0.005 0.15 -0.29725 -3.07693 -0.197569 -0.172252 5680
0.005 0.155 -0.29725 -3.00936 -0.182351 -0.157476 5620
0.005 0.16 -0.29725 -2.93023 -0.167504 -0.143062 5549
0.005 0.165 -0.29725 -2.83986 -0.153084 -0.129068 5518
0.005 0.17 -0.29725 -2.73861 -0.139127 -0.11555 5473
0.005 0.175 -0.29725 -2.62687 -0.125713 -0.10256 5403
0.005 0.18 -0.29725 -2.50507 -0.112883 -0.0901507 5383
0.005 0.185 -0.29725 -2.3737 -0.100685 -0.0783699 5325
0.005 0.19 -0.29725 -2.23328 -0.0891847 -0.0672645 5295
0.005 0.195 -0.29725 -2.08434 -0.0783821 -0.0568784 5278
0.005 0.2 -0.29725 -1.92748 -0.0683436 -0.0472524 5229
0.005 0.205 -0.29725 -1.76332 -0.0591293 -0.0384247 5206
0.005 0.21 -0.29725 -1.59249 -0.0507417 -0.03043 5156
0.005 0.215 -0.29725 -1.41567 -0.043213 -0.0232999 5086
0.005 0.22 -0.29725 -1.23355 -0.0365856 -0.0170626 5064
0.005 0.225 -0.29725 -1.04685 -0.0308838 -0.0117426 5062
0.005 0.23 -0.29725 -0.856294 -0.0261248 -0.00736089 5039
0.005 0.235 -0.29725 -0.662639 -0.0223304 -0.00393487 5031
0.005 0.24 -0.29725 -0.466643 -0.0195033 -0.00147801 5025
0.005 0.245 -0.29725 -0.269075 -0.0176667 -8.41233e-10 4975
0.005 0.25 -0.29725 -0.0707108 -0.0168127 0.000493318 4906
0.005 0.255 -0.29725 0.127671 -0.0169611 8.41232e-10 4923
0.005 0.26 -0.29725 0.325291 -0.0180995 -0.00147801 4903
0.005 0.265 -0.29725 0.521374 -0.0202207 -0.00393487 4863
0.005 0.27 -0.29725 0.715151 -0.0232959 -0.00736089 4821
0.005 0.275 -0.29725 0.905861 -0.0273512 -0.0117425 4851
0.005 0.28 -0.29725 1.09275 -0.0323521 -0.0170626 4814
0.005 0.285 -0.29725 1.2751 -0.0382842 -0.0232999 4776
0.005 0.29 -0.29725 1.45218 -0.0450938 -0.03043 4738
0.005 0.295 -0.29725 1.62331 -0.0527814 -0.0384247 4753
0.005 0.3 -0.29725 1.7878 -0.0613026 -0.0472524 4726
0.005 0.305 -0.29725 1.94503 -0.0706408 -0.0568784 4727
0.005 0.31 -0.29725 2.09436 -0.0807358 -0.0672645 4670
0.005 0.315 -0.29725 2.23522 -0.0915705 -0.0783699 4658
0.005 0.32 -0.29725 2.36706 -0.103064 -0.0901507 4712
0.005 0.325 -0.29725 2.48935 -0.115204 -0.10256 4672
0.005 0.33 -0.29725 2.60163 -0.127944 -0.11555 4625
0.005 0.335 -0.29725 2.70345 -0.141199 -0.129068 4627
0.005 0.34 -0.29725 2.79442 -0.154942 -0.143062 4593
0.005 0.345 -0.29725 2.87419 -0.169114 -0.157476 4608
0.005 0.35 -0.29725 2.94243 -0.183657 -0.172252 4607
0.005 0.355 -0.29725 2.9989 -0.198511 -0.187334 4601
0.005 0.36 -0.29725 3.04337 -0.213617 -0.202661 4592
0.005 0.365 -0.29725 3.07567 -0.228914 -0.218173 4585
0.005 0.37 -0.29725 3.09568 -0.244345 -0.233809 4539
0.005 0.375 -0.29725 3.10332 -0.25984 -0.249507 4497
0.005 0.38 -0.29725 3.09858 -0.275346 -0.265204 4519
0.005 0.385 -0.29725 3.08147 -0.290796 -0.28084 4525
0.005 0.39 -0.29725 3.05207 -0.30613 -0.296352 4538
0.005 0.395 -0.29725 3.0105 -0.321287 -0.311679 4537
0.005 0.4 -0.29725 2.95693 -0.336205 -0.326761 4503
0.005 0.405 -0.29725 2.89158 -0.350825 -0.341538 4508
0.005 0.41 -0.29725 2.8147 -0.365093 -0.355951 4459
0.005 0.415 -0.29725 2.72661 -0.378944 -0.369945 4453
0.005 0.42 -0.29725 2.62767 -0.392329 -0.383463 4436
0.005 0.425 -0.29725 2.51826 -0.405199 -0.396453 4452
0.005 0.43 -0.29725 2.39882 -0.417486 -0.408863 4449
0.005 0.435 -0.29725 2.26984 -0.429161 -0.420643 4437
0.005 0.44 -0.29725 2.13183 -0.440162 -0.431749 4425
0.005 0.445 -0.29725 1.98533 -0.45046 -0.442135 4437
0.005 0.45 -0.29725 1.83094 -0.459993 -0.451761 4444
0.005 0.455 -0.29725 1.66926 -0.468754 -0.460589 4434
0.005 0.46 -0.29725 1.50094 -0.476673 -0.468583 4434
0.005 0.465 -0.29725 1.32665 -0.483738 -0.475713 4452
0.005 0.47 -0.29725 1.14709 -0.489935 -0.481951 4481
0.005 0.475 -0.29725 0.96296 -0.495202 -0.487271 4451
0.005 0.48 -0.29725 0.775004 -0.49954 -0.491652 4430
0.005 0.485 -0.29725 0.583965 -0.502949 -0.495079 4457
0.005 0.49 -0.29725 0.390605 -0.505388 -0.497535 4433
0.005 0.495 -0.29725 0.195692 -0.506853 -0.499013 4439
0.005 0.5 -0.29725 3.34035e-07 -0.507342 -0.499507 4418
0.005 0.505 -0.29725 -0.195691 -0.506853 -0.499013 4439
0.005 0.51 -0.29725 -0.390605 -0.505388 -0.497535 4433
0.005 0.515 -0.29725 -0.583965 -0.502949 -0.495079 4455
0.005 0.52 -0.29725 -0.775003 -0.49954 -0.491652 4432
0.005 0.525 -0.29725 -0.962959 -0.495201 -0.487271 4451
0.005 0.53 -0.29725 -1.14709 -0.489935 -0.481951 4481
0.005 0.535 -0.29725 -1.32665 -0.483738 -0.475713 4452
0.005 0.54 -0.29725 -1.50094 -0.476672 -0.468583 4434
0.005 0.545 -0.29725 -1.66926 -0.468755 -0.460589 4434
0.005 0.55 -0.29725 -1.83094 -0.459993 -0.451761 4442
0.005 0.555 -0.29725 -1.98533 -0.45046 -0.442135 4440
0.005 0.56 -0.29725 -2.13183 -0.440162 -0.431749 4425
0.005 0.565 -0.29725 -2.26984 -0.42916 -0.420643 4437
0.005 0.57 -0.29725 -2.39882 -0.417486 -0.408863 4449
0.005 0.575 -0.29725 -2.51826 -0.405199 -0.396453 4454
0.005 0.58 -0.29725 -2.62767 -0.392329 -0.383463 4436
0.005 0.585 -0.29725 -2.72661 -0.378942 -0.369945 4451
0.005 0.59 -0.29725 -2.8147 -0.365093 -0.355952 4461
0.005 0.595 -0.29725 -2.89157 -0.350825 -0.341538 4508
0.005 0.6 -0.29725 -2.95693 -0.336205 -0.326761 4503
0.005 0.605 -0.29725 -3.0105 -0.321287 -0.311679 4537
0.005 0.61 -0.29725 -3.05207 -0.30613 -0.296352 4538
0.005 0.615 -0.29725 -3.08147 -0.290796 -0.28084 4525
0.005 0.62 -0.29725 -3.09858 -0.275346 -0.265204 4517
0.005 0.625 -0.29725 -3.10332 -0.25984 -0.249507 4498
0.005 0.63 -0.29725 -3.09568 -0.244345 -0.233809 4539
0.005 0.635 -0.29725 -3.07567 -0.228914 -0.218173 4585
0.005 0.64 -0.29725 -3.04337 -0.213617 -0.202661 4592
0.005 0.645 -0.29725 -2.9989 -0.198511 -0.187334 4601
0.005 0.65 -0.29725 -2.94243 -0.183657 -0.172252 4607
0.005 0.655 -0.29725 -2.87419 -0.169115 -0.157476 4606
0.005 0.66 -0.29725 -2.79442 -0.154942 -0.143062 4595
0.005 0.665 -0.29725 -2.70345 -0.141199 -0.129068 4627
0.005 0.67 -0.29725 -2.60163 -0.127944 -0.11555 4625
0.005 0.675 -0.29725 -2.48935 -0.115205 -0.10256 4672
0.005 0.68 -0.29725 -2.36706 -0.103064 -0.0901507 4712
0.005 0.685 -0.29725 -2.23522 -0.0915712 -0.0783699 4658
0.005 0.69 -0.29725 -2.09436 -0.08074 -0.0672645 4668
0.005 0.695 -0.29725 -1.94503 -0.0706412 -0.0568784 4729
0.005 0.7 -0.29725 -1.7878 -0.0613105 -0.0472525 4726
0.005 0.705 -0.29725 -1.62331 -0.0527854 -0.0384247 4753
0.005 0.71 -0.29725 -1.45218 -0.0450938 -0.03043 4737
0.005 0.715 -0.29725 -1.2751 -0.0382841 -0.0232999 4776
0.005 0.72 -0.29725 -1.09276 -0.0323517 -0.0170626 4814
0.005 0.725 -0.29725 -0.905861 -0.0273507 -0.0117426 4849
0.005 0.73 -0.29725 -0.715152 -0.0232978 -0.0073609 4823
0.005 0.735 -0.29725 -0.521375 -0.0202228 -0.00393488 4863
0.005 0.74 -0.29725 -0.325292 -0.0180937 -0.00147801 4903
0.005 0.745 -0.29725 -0.127671 -0.0169622 -2.5237e-09 4923
0.005 0.75 -0.29725 0.0707102 -0.0168144 0.000493318 4906
0.005 0.755 -0.29725 0.269074 -0.0176655 2.5237e-09 4975
0.005 0.76 -0.29725 0.466642 -0.019502 -0.001478 5023
0.005 0.765 -0.29725 0.662638 -0.0223308 -0.00393486 5033
0.005 0.77 -0.29725 0.856293 -0.026126 -0.00736088 5038
0.005 0.775 -0.29725 1.04685 -0.0308843 -0.0117425 5062
0.005 0.78 -0.29725 1.23355 -0.0365852 -0.0170625 5064
0.005 0.785 -0.29725 1.41567 -0.0432123 -0.0232999 5086
0.005 0.79 -0.29725 1.59249 -0.0507408 -0.03043 5156
0.005 0.795 -0.29725 1.76332 -0.0591268 -0.0384247 5204
0.005 0.8 -0.29725 1.92748 -0.0683472 -0.0472524 5231
0.005 0.805 -0.29725 2.08434 -0.0783807 -0.0568783 5278
0.005 0.81 -0.29725 2.23328 -0.0891844 -0.0672645 5295
0.005 0.815 -0.29725 2.3737 -0.100692 -0.0783699 5325
0.005 0.82 -0.29725 2.50507 -0.112883 -0.0901507 5382
0.005 0.825 -0.29725 2.62687 -0.125711 -0.10256 5403
0.005 0.83 -0.29725 2.73861 -0.139127 -0.11555 5471
0.005 0.835 -0.29725 2.83986 -0.153086 -0.129068 5520
0.005 0.84 -0.29725 2.93023 -0.167504 -0.143062 5549
0.005 0.845 -0.29725 3.00936 -0.18235 -0.157476 5620
0.005 0.85 -0.29725 3.07693 -0.19757 -0.172252 5680
0.005 0.855 -0.29725 3.1327 -0.213095 -0.187334 5709
0.005 0.86 -0.29725 3.17643 -0.228869 -0.202661 5752
0.005 0.865 -0.29725 3.20796 -0.244828 -0.218173 5819
0.005 0.87 -0.29725 3.22717 -0.260916 -0.233809 5894
0.005 0.875 -0.29725 3.23398 -0.277068 -0.249507 5912
0.005 0.88 -0.29725 3.22837 -0.293224 -0.265204 6038
0.005 0.885 -0.29725 3.21036 -0.309321 -0.28084 6055
0.005 0.89 -0.29725 3.18003 -0.325296 -0.296352 6148
0.005 0.895 -0.29725 3.1375 -0.341089 -0.311679 6241
0.005 0.9 -0.29725 3.08294 -0.356644 -0.326761 6296
0.005 0.905 -0.29725 3.01656 -0.371887 -0.341538 6448
0.005 0.91 -0.29725 2.93863 -0.386778 -0.355951 6457
0.005 0.915 -0.29725 2.84945 -0.401251 -0.369945 6540
0.005 0.92 -0.29725 2.74939 -0.415246 -0.383463 6729
0.005 0.925 -0.29725 2.63884 -0.428723 -0.396453 6822
0.005 0.93 -0.29725 2.51823 -0.441611 -0.408863 6920
0.005 0.935 -0.29725 2.38805 -0.453875 -0.420643 7022
0.005 0.94 -0.29725 2.2488 -0.465465 -0.431749 7198
0.005 0.945 -0.29725 2.10104 -0.476331 -0.442135 7350
0.005 0.95 -0.29725 1.94535 -0.48645 -0.451761 7523
0.005 0.955 -0.29725 1.78235 -0.495785 -0.460589 7701
0.005 0.96 -0.29725 1.61269 -0.50425 -0.468583 7918
0.005 0.965 -0.29725 1.43702 -0.511889 -0.475713 8078
0.005 0.97 -0.29725 1.25605 -0.518633 -0.481951 8446
0.005 0.975 -0.29725 1.0705 -0.524423 -0.487271 8807
0.005 0.98 -0.29725 0.881086 -0.529314 -0.491652 9130
0.005 0.985 -0.29725 0.688565 -0.533254 -0.495078 9535
0.005 0.99 -0.29725 0.493697 -0.53621 -0.497535 8463
0.005 0.995 -0.29725 0.297251 -0.538172 -0.499013 6904
0.005 1 -0.29725 0.100001 -0.539156 -0.499507 5814
0.01 0 -0.493697 -0.1 -0.537191 -0.498029 7362
0.01 0.005 -0.493697 -0.29725 -0.536203 -0.497535 8463
0.01 0.01 -0.493697 -0.493697 -0.534227 -0.496057 7527
0.01 0.015 -0.493697 -0.688565 -0.531247 -0.4936 8694
0.01 0.02 -0.493697 -0.881085 -0.527324 -0.490174 9497
0.01 0.025 -0.493697 -1.0705 -0.522451 -0.485793 9140
0.01 0.03 -0.493697 -1.25605 -0.516671 -0.480473 8805
0.01 0.035 -0.493697 -1.43702 -0.509915 -0.474235 8445
0.01 0.04 -0.493697 -1.61269 -0.502286 -0.467105 8114
0.01 0.045 -0.493697 -1.78235 -0.493808 -0.459111 7914
0.01 0.05 -0.493697 -1.94535 -0.484474 -0.450283 7703
0.01 0.055 -0.493697 -2.10104 -0.474363 -0.440657 7548
0.01 0.06 -0.493697 -2.2488 -0.463481 -0.430271 7358
0.01 0.065 -0.493697 -2.38804 -0.451893 -0.419165 7161
0.01 0.07 -0.493697 -2.51823 -0.439635 -0.407385 7040
0.01 0.075 -0.493697 -2.63884 -0.42673 -0.394975 6922
0.01 0.08 -0.493697 -2.74939 -0.413271 -0.381985 6837
0.01 0.085 -0.493697 -2.84945 -0.399267 -0.368467 6697
0.01 0.09 -0.493697 -2.93863 -0.384798 -0.354474 6558
0.01 0.095 -0.493697 -3.01656 -0.369915 -0.34006 6520
0.01 0.1 -0.493697 -3.08294 -0.354666 -0.325283 6402
0.01 0.105 -0.493697 -3.1375 -0.339114 -0.310201 6278
0.01 0.11 -0.493697 -3.18003 -0.323319 -0.294874 6285
0.01 0.115 -0.493697 -3.21036 -0.307343 -0.279362 6121
0.01 0.12 -0.493697 -3.22837 -0.291246 -0.263726 6134
0.01 0.125 -0.493697 -3.23398 -0.275091 -0.248029 6047
0.01 0.13 -0.493697 -3.22717 -0.258937 -0.232331 5908
0.01 0.135 -0.493697 -3.20796 -0.242851 -0.216695 5887
0.01 0.14 -0.493697 -3.17643 -0.22689 -0.201183 5826
0.01 0.145 -0.493697 -3.1327 -0.211114 -0.185856 5777
0.01 0.15 -0.493697 -3.07693 -0.195588 -0.170774 5745
0.01 0.155 -0.493697 -3.00936 -0.180378 -0.155998 5662
0.01 0.16 -0.493697 -2.93023 -0.165532 -0.141584 5629
0.01 0.165 -0.493697 -2.83986 -0.151097 -0.12759 5582
0.01 0.17 -0.493697 -2.73861 -0.137162 -0.114072 5579
0.01 0.175 -0.493697 -2.62687 -0.123742 -0.101082 5518
0.01 0.18 -0.493697 -2.50507 -0.11092 -0.0886727 5431
0.01 0.185 -0.493697 -2.3737 -0.0987169 -0.0768919 5419
0.01 0.19 -0.493697 -2.23328 -0.0871961 -0.0657865 5397
0.01 0.195 -0.493697 -2.08434 -0.0763942 -0.0554004 5330
0.01 0.2 -0.493697 -1.92748 -0.0663705 -0.0457744 5323
0.01 0.205 -0.493697 -1.76332 -0.0571477 -0.0369467 5306
0.01 0.21 -0.493697 -1.59249 -0.0487601 -0.028952 5209
0.01 0.215 -0.493697 -1.41567 -0.0412294 -0.0218219 5185
0.01 0.22 -0.493697 -1.23355 -0.0346239 -0.0155846 5147
0.01 0.225 -0.493697 -1.04685 -0.0289029 -0.0102646 5106
0.01 0.23 -0.493697 -0.856294 -0.0241431 -0.00588289 5089
0.01 0.235 -0.493697 -0.662639 -0.0203505 -0.00245687 5082
0.01 0.24 -0.493697 -0.466643 -0.0175387 -1.67915e-09 5046
0.01 0.245 -0.493697 -0.269075 -0.0157052 0.00147801 5021
0.01 0.25 -0.493697 -0.0707108 -0.0148518 0.00197132 5006
0.01 0.255 -0.493697 0.127671 -0.0149813 0.00147801 5007
0.01 0.26 -0.493697 0.325291 -0.0161135 1.67915e-09 4958
0.01 0.265 -0.493697 0.521374 -0.0182401 -0.00245686 4955
0.01 0.27 -0.493697 0.715151 -0.0213255 -0.00588288 4925
0.01 0.275 -0.493697 0.905861 -0.0253708 -0.0102645 4879
0.01 0.28 -0.493697 1.09275 -0.0303665 -0.0155845 4815
0.01 0.285 -0.493697 1.2751 -0.0362989 -0.0218219 4859
0.01 0.29 -0.493697 1.45218 -0.0431212 -0.028952 4845
0.01 0.295 -0.493697 1.62331 -0.0508057 -0.0369467 4829
0.01 0.3 -0.493697 1.7878 -0.0593339 -0.0457744 4778
0.01 0.305 -0.493697 1.94503 -0.0686736 -0.0554004 4795
0.01 0.31 -0.493697 2.09436 -0.078762 -0.0657865 4795
0.01 0.315 -0.493697 2.23522 -0.0895781 -0.0768919 4733
0.01 0.32 -0.493697 2.36706 -0.101095 -0.0886727 4727
0.01 0.325 -0.493697 2.48935 -0.113239 -0.101082 4665
0.01 0.33 -0.493697 2.60163 -0.125955 -0.114072 4686
0.01 0.335 -0.493697 2.70345 -0.139228 -0.12759 4692
0.01 0.34 -0.493697 2.79442 -0.152973 -0.141584 4664
0.01 0.345 -0.493697 2.87419 -0.167138 -0.155998 4681
0.01 0.35 -0.493697 2.94243 -0.181682 -0.170774 4633
0.01 0.355 -0.493697 2.9989 -0.196532 -0.185856 4582
0.01 0.36 -0.493697 3.04337 -0.211639 -0.201183 4610
0.01 0.365 -0.493697 3.07567 -0.22694 -0.216695 4616
0.01 0.37 -0.493697 3.09568 -0.242366 -0.232331 4624
0.01 0.375 -0.493697 3.10332 -0.257865 -0.248029 4612
0.01 0.38 -0.493697 3.09858 -0.273369 -0.263726 4549
0.01 0.385 -0.493697 3.08147 -0.288819 -0.279362 4546
0.01 0.39 -0.493697 3.05207 -0.304153 -0.294874 4506
0.01 0.395 -0.493697 3.0105 -0.319309 -0.310201 4517
0.01 0.4 -0.493697 2.95693 -0.334227 -0.325283 4521
0.01 0.405 -0.493697 2.89158 -0.348849 -0.34006 4552
0.01 0.41 -0.493697 2.8147 -0.363115 -0.354473 4559
0.01 0.415 -0.493697 2.72661 -0.376969 -0.368467 4534
0.01 0.42 -0.493697 2.62767 -0.390352 -0.381985 4519
0.01 0.425 -0.493697 2.51826 -0.40322 -0.394975 4529
0.01 0.43 -0.493697 2.39882 -0.415514 -0.407385 4517
0.01 0.435 -0.493697 2.26984 -0.427184 -0.419165 4504
0.01 0.44 -0.493697 2.13183 -0.43819 -0.430271 4467
0.01 0.445 -0.493697 1.98533 -0.448475 -0.440657 4477
0.01 0.45 -0.493697 1.83094 -0.458024 -0.450283 4486
0.01 0.455 -0.493697 1.66926 -0.466766 -0.459111 4457
0.01 0.46 -0.493697 1.50094 -0.474695 -0.467105 4441
0.01 0.465 -0.493697 1.32665 -0.48177 -0.474235 4431
0.01 0.47 -0.493697 1.14709 -0.487945 -0.480473 4452
0.01 0.475 -0.493697 0.96296 -0.493228 -0.485793 4457
0.01 0.48 -0.493697 0.775004 -0.497576 -0.490174 4492
0.01 0.485 -0.493697 0.583965 -0.50096 -0.4936 4476
0.01 0.49 -0.493697 0.390605 -0.503396 -0.496057 4411
0.01 0.495 -0.493697 0.195692 -0.504862 -0.497535 4430
0.01 0.5 -0.493697 3.34035e-07 -0.50535 -0.498029 4458
0.01 0.505 -0.493697 -0.195691 -0.504862 -0.497535 4430
0.01 0.51 -0.493697 -0.390605 -0.503396 -0.496057 4411
0.01 0.515 -0.493697 -0.583965 -0.500961 -0.4936 4474
0.01 0.52 -0.493697 -0.775003 -0.497576 -0.490174 4494
0.01 0.525 -0.493697 -0.962959 -0.493231 -0.485793 4457
0.01 0.53 -0.493697 -1.14709 -0.487944 -0.480473 4452
0.01 0.535 -0.493697 -1.32665 -0.48177 -0.474235 4431
0.01 0.54 -0.493697 -1.50094 -0.474695 -0.467105 4441
0.01 0.545 -0.493697 -1.66926 -0.466766 -0.459111 4457
0.01 0.55 -0.493697 -1.83094 -0.458025 -0.450283 4484
0.01 0.555 -0.493697 -1.98533 -0.448474 -0.440657 4479
0.01 0.56 -0.493697 -2.13183 -0.43819 -0.430271 4467
0.01 0.565 -0.493697 -2.26984 -0.427183 -0.419165 4504
0.01 0.57 -0.493697 -2.39882 -0.415513 -0.407385 4517
0.01 0.575 -0.493697 -2.51826 -0.40322 -0.394975 4529
0.01 0.58 -0.493697 -2.62767 -0.390351 -0.381985 4519
0.01 0.585 -0.493697 -2.72661 -0.37697 -0.368467 4532
0.01 0.59 -0.493697 -2.8147 -0.363116 -0.354474 4561
0.01 0.595 -0.493697 -2.89157 -0.34885 -0.34006 4552
0.01 0.6 -0.493697 -2.95693 -0.334227 -0.325283 4521
0.01 0.605 -0.493697 -3.0105 -0.319309 -0.310201 4517
0.01 0.61 -0.493697 -3.05207 -0.304153 -0.294874 4506
0.01 0.615 -0.493697 -3.08147 -0.288819 -0.279362 4546
0.01 0.62 -0.493697 -3.09858 -0.273369 -0.263726 4547
0.01 0.625 -0.493697 -3.10332 -0.257865 -0.248029 4614
0.01 0.63 -0.493697 -3.09568 -0.242365 -0.232331 4624
0.01 0.635 -0.493697 -3.07567 -0.226941 -0.216695 4616
0.01 0.64 -0.493697 -3.04337 -0.211638 -0.201183 4610
0.01 0.645 -0.493697 -2.9989 -0.196533 -0.185856 4582
0.01 0.65 -0.493697 -2.94243 -0.181681 -0.170774 4633
0.01 0.655 -0.493697 -2.87419 -0.167138 -0.155998 4679
0.01 0.66 -0.493697 -2.79442 -0.152972 -0.141584 4666
0.01 0.665 -0.493697 -2.70345 -0.139229 -0.12759 4692
0.01 0.67 -0.493697 -2.60163 -0.125954 -0.114072 4686
0.01 0.675 -0.493697 -2.48935 -0.113239 -0.101082 4665
0.01 0.68 -0.493697 -2.36706 -0.101097 -0.0886727 4727
0.01 0.685 -0.493697 -2.23522 -0.089581 -0.0768919 4733
0.01 0.69 -0.493697 -2.09436 -0.0787611 -0.0657865 4793
0.01 0.695 -0.493697 -1.94503 -0.0686744 -0.0554004 4797
0.01 0.7 -0.493697 -1.7878 -0.0593334 -0.0457744 4778
0.01 0.705 -0.493697 -1.62331 -0.0508141 -0.0369467 4829
0.01 0.71 -0.493697 -1.45218 -0.0431264 -0.028952 4845
0.01 0.715 -0.493697 -1.2751 -0.0363006 -0.0218219 4859
0.01 0.72 -0.493697 -1.09276 -0.0303679 -0.0155846 4815
0.01 0.725 -0.493697 -0.905861 -0.0253726 -0.0102646 4877
0.01 0.73 -0.493697 -0.715152 -0.0213262 -0.00588289 4927
0.01 0.735 -0.493697 -0.521375 -0.0182429 -0.00245687 4955
0.01 0.74 -0.493697 -0.325292 -0.0161128 -5.03744e-09 4958
0.01 0.745 -0.493697 -0.127671 -0.0149802 0.001478 5007
0.01 0.75 -0.493697 0.0707102 -0.0148527 0.00197132 5006
0.01 0.755 -0.493697 0.269074 -0.0157048 0.00147801 5021
0.01 0.76 -0.493697 0.466642 -0.0175395 5.03743e-09 5044
0.01 0.765 -0.493697 0.662638 -0.0203517 -0.00245686 5084
0.01 0.77 -0.493697 0.856293 -0.0241446 -0.00588288 5089
0.01 0.775 -0.493697 1.04685 -0.0289024 -0.0102645 5106
0.01 0.78 -0.493697 1.23355 -0.0346224 -0.0155845 5147
0.01 0.785 -0.493697 1.41567 -0.0412274 -0.0218219 5185
0.01 0.79 -0.493697 1.59249 -0.0487633 -0.028952 5209
0.01 0.795 -0.493697 1.76332 -0.0571578 -0.0369467 5304
0.01 0.8 -0.493697 1.92748 -0.066371 -0.0457744 5325
0.01 0.805 -0.493697 2.08434 -0.0763977 -0.0554003 5330
0.01 0.81 -0.493697 2.23328 -0.0871958 -0.0657865 5397
0.01 0.815 -0.493697 2.3737 -0.0987173 -0.0768919 5419
0.01 0.82 -0.493697 2.50507 -0.11092 -0.0886726 5431
0.01 0.825 -0.493697 2.62687 -0.123742 -0.101082 5519
0.01 0.83 -0.493697 2.73861 -0.137162 -0.114072 5577
0.01 0.835 -0.493697 2.83986 -0.151096 -0.12759 5584
0.01 0.84 -0.493697 2.93023 -0.165533 -0.141584 5629
0.01 0.845 -0.493697 3.00936 -0.180379 -0.155997 5662
0.01 0.85 -0.493697 3.07693 -0.195587 -0.170774 5745
0.01 0.855 -0.493697 3.1327 -0.211115 -0.185856 5777
0.01 0.86 -0.493697 3.17643 -0.22689 -0.201183 5826
0.01 0.865 -0.493697 3.20796 -0.242851 -0.216695 5885
0.01 0.87 -0.493697 3.22717 -0.258936 -0.232331 5910
0.01 0.875 -0.493697 3.23398 -0.275091 -0.248029 6047