TITLE="Pressure integrated from Omni2D"
VARIABLES = "X","Y","Dudt","DvDt","Pcal","Preal","Count"
ZONE I=201, J=201
0 0 -0.314159 -0.314159 -0.499825 -0.5 1326
0 0.005 -0.314159 -0.510027 -0.497764 -0.499507 5814
0 0.01 -0.314159 -0.702341 -0.494724 -0.498029 7362
0 0.015 -0.314159 -0.890361 -0.490769 -0.495572 7008
0 0.02 -0.314159 -1.07338 -0.48586 -0.492146 6664
0 0.025 -0.314159 -1.25072 -0.480037 -0.487764 6417
0 0.03 -0.314159 -1.42175 -0.473357 -0.482444 6151
0 0.035 -0.314159 -1.58586 -0.465837 -0.476207 5970
0 0.04 -0.314159 -1.74249 -0.457512 -0.469077 5856
0 0.045 -0.314159 -1.89111 -0.448423 -0.461082 5681
0 0.05 -0.314159 -2.03124 -0.438637 -0.452254 5558
0 0.055 -0.314159 -2.16245 -0.428154 -0.442628 5415
0 0.06 -0.314159 -2.28433 -0.417034 -0.432242 5324
0 0.065 -0.314159 -2.39654 -0.405328 -0.421137 5208
0 0.07 -0.314159 -2.49877 -0.393087 -0.409356 5097
0 0.075 -0.314159 -2.59075 -0.380365 -0.396946 5058
0 0.08 -0.314159 -2.67226 -0.367209 -0.383957 4957
0 0.085 -0.314159 -2.74313 -0.353667 -0.370438 4856
0 0.09 -0.314159 -2.80322 -0.339804 -0.356445 4846
0 0.095 -0.314159 -2.85245 -0.325664 -0.342031 4751
0 0.1 -0.314159 -2.89075 -0.311305 -0.327254 4664
0 0.105 -0.314159 -2.91813 -0.296784 -0.312172 4690
0 0.11 -0.314159 -2.9346 -0.282152 -0.296845 4550
0 0.115 -0.314159 -2.94024 -0.267464 -0.281333 4561
0 0.12 -0.314159 -2.93514 -0.252776 -0.265698 4457
0 0.125 -0.314159 -2.91945 -0.238139 -0.25 4439
0 0.13 -0.314159 -2.89333 -0.223609 -0.234302 4400
0 0.135 -0.314159 -2.85699 -0.209231 -0.218667 4352
0 0.14 -0.314159 -2.81065 -0.195063 -0.203155 4309
0 0.145 -0.314159 -2.75457 -0.181148 -0.187828 4265
0 0.15 -0.314159 -2.68905 -0.167537 -0.172746 4242
0 0.155 -0.314159 -2.61439 -0.154284 -0.157969 4232
0 0.16 -0.314159 -2.53092 -0.141415 -0.143555 4119
0 0.165 -0.314159 -2.43899 -0.128997 -0.129562 4159
0 0.17 -0.314159 -2.33899 -0.117053 -0.116043 4085
0 0.175 -0.314159 -2.23131 -0.105629 -0.103054 4075
0 0.18 -0.314159 -2.11635 -0.0947588 -0.090644 4084
0 0.185 -0.314159 -1.99454 -0.0844707 -0.0788632 4024
0 0.19 -0.314159 -1.86631 -0.0748239 -0.0677579 4028
0 0.195 -0.314159 -1.73212 -0.0658345 -0.0573717 3921
0 0.2 -0.314159 -1.59242 -0.0575138 -0.0477458 3905
0 0.205 -0.314159 -1.4477 -0.0499205 -0.038918 3910
0 0.21 -0.314159 -1.29842 -0.043045 -0.0309233 3867
0 0.215 -0.314159 -1.14507 -0.0369367 -0.0237932 3846
0 0.22 -0.314159 -0.988163 -0.0316109 -0.0175559 3863
0 0.225 -0.314159 -0.82818 -0.0270785 -0.0122359 3827
0 0.23 -0.314159 -0.665633 -0.023329 -0.00785421 3851
0 0.235 -0.314159 -0.501028 -0.0204281 -0.00442819 3772
0 0.24 -0.314159 -0.334879 -0.0183228 -0.00197133 3762
0 0.245 -0.314159 -0.167697 -0.0170803 -0.000493319 3762
0 0.25 -0.314159 -1.43104e-07 -0.0166572 -3.60822e-16 3726
0 0.255 -0.314159 0.167697 -0.017082 -0.000493317 3691
0 0.26 -0.314159 0.334878 -0.0183227 -0.00197132 3708
0 0.265 -0.314159 0.501028 -0.0204275 -0.00442818 3704
0 0.27 -0.314159 0.665632 -0.0233295 -0.00785421 3658
0 0.275 -0.314159 0.82818 -0.0270785 -0.0122359 3642
0 0.28 -0.314159 0.988162 -0.031612 -0.0175559 3647
0 0.285 -0.314159 1.14507 -0.0369372 -0.0237932 3627
0 0.29 -0.314159 1.29842 -0.0430556 -0.0309233 3635
0 0.295 -0.314159 1.4477 -0.0499211 -0.038918 3608
0 0.3 -0.314159 1.59242 -0.057522 -0.0477457 3598
0 0.305 -0.314159 1.73212 -0.0658364 -0.0573717 3577
0 0.31 -0.314159 1.86631 -0.0748248 -0.0677578 3599
0 0.315 -0.314159 1.99454 -0.084472 -0.0788632 3526
0 0.32 -0.314159 2.11635 -0.0947602 -0.090644 3552
0 0.325 -0.314159 2.23131 -0.105627 -0.103054 3546
0 0.33 -0.314159 2.33899 -0.117055 -0.116043 3553
0 0.335 -0.314159 2.43899 -0.128994 -0.129562 3537
0 0.34 -0.314159 2.53092 -0.141416 -0.143555 3520
0 0.345 -0.314159 2.61439 -0.154285 -0.157969 3496
0 0.35 -0.314159 2.68905 -0.167539 -0.172746 3465
0 0.355 -0.314159 2.75457 -0.181149 -0.187828 3430
0 0.36 -0.314159 2.81065 -0.195063 -0.203155 3484
0 0.365 -0.314159 2.85699 -0.209234 -0.218667 3470
0 0.37 -0.314159 2.89333 -0.223609 -0.234302 3456
0 0.375 -0.314159 2.91945 -0.23814 -0.25 3456
0 0.38 -0.314159 2.93514 -0.252778 -0.265698 3435
0 0.385 -0.314159 2.94024 -0.267466 -0.281333 3426
0 0.39 -0.314159 2.9346 -0.282153 -0.296845 3415
0 0.395 -0.314159 2.91813 -0.296785 -0.312172 3400
0 0.4 -0.314159 2.89075 -0.311306 -0.327254 3405
0 0.405 -0.314159 2.85245 -0.325664 -0.342031 3423
0 0.41 -0.314159 2.80322 -0.339805 -0.356445 3454
0 0.415 -0.314159 2.74313 -0.353669 -0.370438 3452
0 0.42 -0.314159 2.67226 -0.36721 -0.383957 3376
0 0.425 -0.314159 2.59075 -0.380366 -0.396946 3386
0 0.43 -0.314159 2.49877 -0.393091 -0.409356 3410
0 0.435 -0.314159 2.39654 -0.405329 -0.421137 3394
0 0.44 -0.314159 2.28433 -0.417034 -0.432242 3416
0 0.445 -0.314159 2.16245 -0.42815 -0.442628 3353
0 0.45 -0.314159 2.03124 -0.43863 -0.452254 3341
0 0.455 -0.314159 1.89111 -0.448436 -0.461082 3379
0 0.46 -0.314159 1.74249 -0.457518 -0.469077 3348
0 0.465 -0.314159 1.58586 -0.465851 -0.476207 3357
0 0.47 -0.314159 1.42175 -0.473365 -0.482444 3363
0 0.475 -0.314159 1.25072 -0.480039 -0.487764 3343
0 0.48 -0.314159 1.07338 -0.485849 -0.492146 3309
0 0.485 -0.314159 0.890361 -0.490766 -0.495572 3336
0 0.49 -0.314159 0.702341 -0.494745 -0.498029 3370
0 0.495 -0.314159 0.510028 -0.497781 -0.499507 3378
0 0.5 -0.314159 0.31416 -0.499829 -0.5 3376
0 0.505 -0.314159 0.115503 -0.50091 -0.499507 3378
0 0.51 -0.314159 -0.085151 -0.500978 -0.498029 3370
0 0.515 -0.314159 -0.28699 -0.500055 -0.495572 3334
0 0.52 -0.314159 -0.489184 -0.498108 -0.492146 3311
0 0.525 -0.314159 -0.690887 -0.495169 -0.487764 3343
0 0.53 -0.314159 -0.891244 -0.491207 -0.482444 3363
0 0.535 -0.314159 -1.08939 -0.48626 -0.476207 3357
0 0.54 -0.314159 -1.28446 -0.480327 -0.469077 3348
0 0.545 -0.314159 -1.47559 -0.473427 -0.461082 3379
0 0.55 -0.314159 -1.66192 -0.465575 -0.452254 3339
0 0.555 -0.314159 -1.84261 -0.45682 -0.442628 3355
0 0.56 -0.314159 -2.01681 -0.447172 -0.432242 3415
0 0.565 -0.314159 -2.1837 -0.436668 -0.421137 3394
0 0.57 -0.314159 -2.34251 -0.42535 -0.409356 3410
0 0.575 -0.314159 -2.49246 -0.413264 -0.396946 3386
0 0.58 -0.314159 -2.63281 -0.400448 -0.383957 3374
0 0.585 -0.314159 -2.76287 -0.386959 -0.370438 3450
0 0.59 -0.314159 -2.88197 -0.372851 -0.356445 3454
0 0.595 -0.314159 -2.98951 -0.358172 -0.342031 3423
0 0.6 -0.314159 -3.08491 -0.342984 -0.327254 3405
0 0.605 -0.314159 -3.16766 -0.327355 -0.312173 3400
0 0.61 -0.314159 -3.23729 -0.311342 -0.296845 3415
0 0.615 -0.314159 -3.2934 -0.295015 -0.281333 3426
0 0.62 -0.314159 -3.33565 -0.278442 -0.265698 3434
0 0.625 -0.314159 -3.36374 -0.261694 -0.25 3458
0 0.63 -0.314159 -3.37746 -0.244842 -0.234302 3456
0 0.635 -0.314159 -3.37666 -0.227957 -0.218667 3470
0 0.64 -0.314159 -3.36125 -0.211112 -0.203155 3484
0 0.645 -0.314159 -3.33121 -0.194381 -0.187828 3430
0 0.65 -0.314159 -3.28662 -0.17784 -0.172746 3465
0 0.655 -0.314159 -3.22757 -0.161552 -0.157969 3494
0 0.66 -0.314159 -3.15428 -0.145594 -0.143555 3520
0 0.665 -0.314159 -3.067 -0.130039 -0.129562 3537
0 0.67 -0.314159 -2.96607 -0.11496 -0.116043 3553
0 0.675 -0.314159 -2.85189 -0.100413 -0.103054 3546
0 0.68 -0.314159 -2.72493 -0.0864767 -0.090644 3552
0 0.685 -0.314159 -2.58571 -0.0731911 -0.0788632 3526
0 0.69 -0.314159 -2.43483 -0.0606495 -0.0677579 3597
0 0.695 -0.314159 -2.27294 -0.04888 -0.0573717 3579
0 0.7 -0.314159 -2.10074 -0.0379468 -0.0477458 3598
0 0.705 -0.314159 -1.919 -0.0278888 -0.038918 3608
0 0.71 -0.314159 -1.72853 -0.0187803 -0.0309233 3635
0 0.715 -0.314159 -1.53018 -0.0106185 -0.0237933 3628
0 0.72 -0.314159 -1.32483 -0.0034789 -0.0175559 3647
0 0.725 -0.314159 -1.11343 0.00261677 -0.0122359 3640
0 0.73 -0.314159 -0.896933 0.00763465 -0.00785422 3660
0 0.735 -0.314159 -0.676324 0.0115562 -0.00442819 3704
0 0.74 -0.314159 -0.452614 0.0143947 -0.00197133 3708
0 0.745 -0.314159 -0.226828 0.0160822 -0.00049332 3691
0 0.75 -0.314159 -5.80833e-07 0.0166635 -3.21965e-15 3726
0 0.755 -0.314159 0.226827 0.0160776 -0.000493315 3762
0 0.76 -0.314159 0.452613 0.0143762 -0.00197132 3760
0 0.765 -0.314159 0.676323 0.0115568 -0.00442818 3775
0 0.77 -0.314159 0.896931 0.00763397 -0.0078542 3851
0 0.775 -0.314159 1.11343 0.00261767 -0.0122359 3827
0 0.78 -0.314159 1.32483 -0.00347902 -0.0175559 3863
0 0.785 -0.314159 1.53017 -0.0106179 -0.0237932 3846
0 0.79 -0.314159 1.72853 -0.0187805 -0.0309233 3867
0 0.795 -0.314159 1.919 -0.0278884 -0.038918 3908
0 0.8 -0.314159 2.10074 -0.037947 -0.0477457 3907
0 0.805 -0.314159 2.27294 -0.0488805 -0.0573717 3921
0 0.81 -0.314159 2.43483 -0.0606505 -0.0677578 4028
0 0.815 -0.314159 2.58571 -0.0731888 -0.0788632 4024
0 0.82 -0.314159 2.72493 -0.086477 -0.090644 4084
0 0.825 -0.314159 2.85189 -0.100409 -0.103054 4075
0 0.83 -0.314159 2.96607 -0.114963 -0.116043 4083
0 0.835 -0.314159 3.067 -0.130042 -0.129562 4161
0 0.84 -0.314159 3.15428 -0.145596 -0.143555 4119
0 0.845 -0.314159 3.22757 -0.161552 -0.157969 4232
0 0.85 -0.314159 3.28662 -0.177841 -0.172746 4242
0 0.855 -0.314159 3.33121 -0.194382 -0.187827 4265
0 0.86 -0.314159 3.36125 -0.211112 -0.203155 4309
0 0.865 -0.314159 3.37666 -0.227956 -0.218667 4350
0 0.87 -0.314159 3.37746 -0.244839 -0.234302 4402
0 0.875 -0.314159 3.36374 -0.261693 -0.25 4439
0 0.88 -0.314159 3.33565 -0.278441 -0.265698 4457
0 0.885 -0.314159 3.2934 -0.295015 -0.281333 4561
0 0.89 -0.314159 3.23729 -0.31134 -0.296845 4550
0 0.895 -0.314159 3.16766 -0.327355 -0.312172 4690
0 0.9 -0.314159 3.08491 -0.342983 -0.327254 4662
0 0.905 -0.314159 2.98951 -0.358174 -0.342031 4753
0 0.91 -0.314159 2.88197 -0.372853 -0.356445 4846
0 0.915 -0.314159 2.76287 -0.386959 -0.370438 4856
0 0.92 -0.314159 2.63281 -0.400448 -0.383957 4957
0 0.925 -0.314159 2.49246 -0.413263 -0.396946 5058
0 0.93 -0.314159 2.34251 -0.425349 -0.409356 5097
0 0.935 -0.314159 2.18371 -0.436655 -0.421137 5206
0 0.94 -0.314159 2.01681 -0.447154 -0.432242 5326
0 0.945 -0.314159 1.84261 -0.4568 -0.442628 5415
0 0.95 -0.314159 1.66192 -0.465574 -0.452254 5557
0 0.955 -0.314159 1.47559 -0.473409 -0.461082 5681
0 0.96 -0.314159 1.28446 -0.48031 -0.469077 5857
0 0.965 -0.314159 1.08939 -0.48626 -0.476207 5970
0 0.97 -0.314159 0.891245 -0.491198 -0.482444 6149
0 0.975 -0.314159 0.690888 -0.49517 -0.487764 6419
0 0.98 -0.314159 0.489185 -0.498105 -0.492146 6664
0 0.985 -0.314159 0.286991 -0.500055 -0.495572 7008
0 0.99 -0.314159 0.085152 -0.500965 -0.498029 7362
0 0.995 -0.314159 -0.115502 -0.500909 -0.499507 5814
0 1 -0.314159 -0.314159 -0.499826 -0.5 1326
0.005 0 -0.510027 -0.314159 -0.497759 -0.499507 5814
0.005 0.005 -0.510027 -0.510027 -0.495696 -0.499013 6905
0.005 0.01 -0.510027 -0.702341 -0.492685 -0.497535 8463
0.005 0.015 -0.510027 -0.890361 -0.488699 -0.495079 9535
0.005 0.02 -0.510027 -1.07338 -0.483804 -0.491652 9130
0.005 0.025 -0.510027 -1.25072 -0.477968 -0.487271 8805
0.005 0.03 -0.510027 -1.42175 -0.471285 -0.481951 8448
0.005 0.035 -0.510027 -1.58586 -0.463788 -0.475713 8078
0.005 0.04 -0.510027 -1.74249 -0.455464 -0.468583 7918
0.005 0.045 -0.510027 -1.89111 -0.446366 -0.460589 7700
0.005 0.05 -0.510027 -2.03124 -0.43657 -0.451761 7523
0.005 0.055 -0.510027 -2.16245 -0.426083 -0.442135 7350
0.005 0.06 -0.510027 -2.28433 -0.414972 -0.431749 7196
0.005 0.065 -0.510027 -2.39654 -0.403262 -0.420643 7024
0.005 0.07 -0.510027 -2.49877 -0.391032 -0.408863 6920
0.005 0.075 -0.510027 -2.59075 -0.3783 -0.396453 6822
0.005 0.08 -0.510027 -2.67226 -0.365148 -0.383463 6729
0.005 0.085 -0.510027 -2.74313 -0.35161 -0.369945 6540
0.005 0.09 -0.510027 -2.80322 -0.337741 -0.355952 6457
0.005 0.095 -0.510027 -2.85245 -0.323603 -0.341538 6446
0.005 0.1 -0.510027 -2.89075 -0.309245 -0.326761 6297
0.005 0.105 -0.510027 -2.91813 -0.294723 -0.311679 6241
0.005 0.11 -0.510027 -2.9346 -0.280091 -0.296352 6148
0.005 0.115 -0.510027 -2.94024 -0.265404 -0.28084 6055
0.005 0.12 -0.510027 -2.93514 -0.250715 -0.265204 6038
0.005 0.125 -0.510027 -2.91945 -0.236079 -0.249507 5912
0.005 0.13 -0.510027 -2.89333 -0.221548 -0.233809 5892
0.005 0.135 -0.510027 -2.85699 -0.207173 -0.218173 5821
0.005 0.14 -0.510027 -2.81065 -0.193002 -0.202661 5752
0.005 0.145 -0.510027 -2.75457 -0.179089 -0.187334 5709
0.005 0.15 -0.510027 -2.68905 -0.165477 -0.172252 5680
0.005 0.155 -0.510027 -2.61439 -0.152218 -0.157476 5620
0.005 0.16 -0.510027 -2.53092 -0.139354 -0.143062 5549
0.005 0.165 -0.510027 -2.43899 -0.126939 -0.129068 5518
0.005 0.17 -0.510027 -2.33899 -0.114986 -0.11555 5473
0.005 0.175 -0.510027 -2.23131 -0.10357 -0.10256 5403
0.005 0.18 -0.510027 -2.11635 -0.0927017 -0.0901507 5383
0.005 0.185 -0.510027 -1.99454 -0.0824108 -0.0783699 5325
0.005 0.19 -0.510027 -1.86631 -0.0727601 -0.0672645 5295
0.005 0.195 -0.510027 -1.73212 -0.0637744 -0.0568784 5278
0.005 0.2 -0.510027 -1.59242 -0.055464 -0.0472524 5229
0.005 0.205 -0.510027 -1.4477 -0.0478582 -0.0384247 5206
0.005 0.21 -0.510027 -1.29842 -0.0409891 -0.03043 5156
0.005 0.215 -0.510027 -1.14507 -0.0348809 -0.0232999 5086
0.005 0.22 -0.510027 -0.988163 -0.0295515 -0.0170626 5064
0.005 0.225 -0.510027 -0.82818 -0.0250061 -0.0117426 5062
0.005 0.23 -0.510027 -0.665633 -0.0212847 -0.00736089 5039
0.005 0.235 -0.510027 -0.501028 -0.0183647 -0.00393487 5031
0.005 0.24 -0.510027 -0.334879 -0.0162801 -0.00147801 5025
0.005 0.245 -0.510027 -0.167697 -0.0150196 -8.41233e-10 4975
0.005 0.25 -0.510027 -1.43104e-07 -0.0145877 0.000493318 4906
0.005 0.255 -0.510027 0.167697 -0.0150169 8.41232e-10 4923
0.005 0.26 -0.510027 0.334878 -0.0162793 -0.00147801 4903
0.005 0.265 -0.510027 0.501028 -0.0183647 -0.00393487 4863
0.005 0.27 -0.510027 0.665632 -0.0212851 -0.00736089 4821
0.005 0.275 -0.510027 0.82818 -0.0250063 -0.0117425 4851
0.005 0.28 -0.510027 0.988162 -0.0295522 -0.0170626 4814
0.005 0.285 -0.510027 1.14507 -0.0348865 -0.0232999 4776
0.005 0.29 -0.510027 1.29842 -0.0409936 -0.03043 4738
0.005 0.295 -0.510027 1.4477 -0.0478546 -0.0384247 4753
0.005 0.3 -0.510027 1.59242 -0.0554649 -0.0472524 4726
0.005 0.305 -0.510027 1.73212 -0.0637757 -0.0568784 4727
0.005 0.31 -0.510027 1.86631 -0.0727592 -0.0672645 4670
0.005 0.315 -0.510027 1.99454 -0.0824107 -0.0783699 4658
0.005 0.32 -0.510027 2.11635 -0.0927013 -0.0901507 4712
0.005 0.325 -0.510027 2.23131 -0.103569 -0.10256 4672
0.005 0.33 -0.510027 2.33899 -0.114988 -0.11555 4625
0.005 0.335 -0.510027 2.43899 -0.126939 -0.129068 4627
0.005 0.34 -0.510027 2.53092 -0.139357 -0.143062 4593
0.005 0.345 -0.510027 2.61439 -0.15222 -0.157476 4608
0.005 0.35 -0.510027 2.68905 -0.165484 -0.172252 4607
0.005 0.355 -0.510027 2.75457 -0.179093 -0.187334 4601
0.005 0.36 -0.510027 2.81065 -0.193003 -0.202661 4592
0.005 0.365 -0.510027 2.85699 -0.207174 -0.218173 4585
0.005 0.37 -0.510027 2.89333 -0.221549 -0.233809 4539
0.005 0.375 -0.510027 2.91945 -0.23608 -0.249507 4497
0.005 0.38 -0.510027 2.93514 -0.250717 -0.265204 4519
0.005 0.385 -0.510027 2.94024 -0.265405 -0.28084 4525
0.005 0.39 -0.510027 2.9346 -0.280092 -0.296352 4538
0.005 0.395 -0.510027 2.91813 -0.294724 -0.311679 4537
0.005 0.4 -0.510027 2.89075 -0.309246 -0.326761 4503
0.005 0.405 -0.510027 2.85245 -0.323604 -0.341538 4508
0.005 0.41 -0.510027 2.80322 -0.337744 -0.355951 4459
0.005 0.415 -0.510027 2.74313 -0.351611 -0.369945 4453
0.005 0.42 -0.510027 2.67226 -0.365146 -0.383463 4436
0.005 0.425 -0.510027 2.59075 -0.378303 -0.396453 4452
0.005 0.43 -0.510027 2.49877 -0.391027 -0.408863 4449
0.005 0.435 -0.510027 2.39654 -0.403266 -0.420643 4437
0.005 0.44 -0.510027 2.28433 -0.414972 -0.431749 4425
0.005 0.445 -0.510027 2.16245 -0.426084 -0.442135 4437
0.005 0.45 -0.510027 2.03124 -0.436575 -0.451761 4444
0.005 0.455 -0.510027 1.89111 -0.446372 -0.460589 4434
0.005 0.46 -0.510027 1.74249 -0.455455 -0.468583 4434
0.005 0.465 -0.510027 1.58586 -0.463787 -0.475713 4452
0.005 0.47 -0.510027 1.42175 -0.471306 -0.481951 4481
0.005 0.475 -0.510027 1.25072 -0.477975 -0.487271 4451
0.005 0.48 -0.510027 1.07338 -0.483792 -0.491652 4430
0.005 0.485 -0.510027 0.890361 -0.488703 -0.495079 4457
0.005 0.49 -0.510027 0.702341 -0.492676 -0.497535 4433
0.005 0.495 -0.510027 0.510028 -0.49572 -0.499013 4439
0.005 0.5 -0.510027 0.31416 -0.497782 -0.499507 4418
0.005 0.505 -0.510027 0.115503 -0.49884 -0.499013 4439
0.005 0.51 -0.510027 -0.085151 -0.498917 -0.497535 4433
0.005 0.515 -0.510027 -0.28699 -0.497986 -0.495079 4455
0.005 0.52 -0.510027 -0.489184 -0.496045 -0.491652 4432
0.005 0.525 -0.510027 -0.690887 -0.4931 -0.487271 4451
0.005 0.53 -0.510027 -0.891244 -0.489141 -0.481951 4481
0.005 0.535 -0.510027 -1.08939 -0.484191 -0.475713 4452
0.005 0.54 -0.510027 -1.28446 -0.478265 -0.468583 4434
0.005 0.545 -0.510027 -1.47559 -0.471367 -0.460589 4434
0.005 0.55 -0.510027 -1.66192 -0.463512 -0.451761 4442
0.005 0.555 -0.510027 -1.84261 -0.454762 -0.442135 4440
0.005 0.56 -0.510027 -2.01681 -0.445112 -0.431749 4425
0.005 0.565 -0.510027 -2.1837 -0.434611 -0.420643 4437
0.005 0.57 -0.510027 -2.34251 -0.423289 -0.408863 4449
0.005 0.575 -0.510027 -2.49246 -0.411201 -0.396453 4454
0.005 0.58 -0.510027 -2.63281 -0.398393 -0.383463 4436
0.005 0.585 -0.510027 -2.76287 -0.384905 -0.369945 4451
0.005 0.59 -0.510027 -2.88197 -0.370787 -0.355952 4461
0.005 0.595 -0.510027 -2.98951 -0.356108 -0.341538 4508
0.005 0.6 -0.510027 -3.08491 -0.340925 -0.326761 4503
0.005 0.605 -0.510027 -3.16766 -0.325294 -0.311679 4537
0.005 0.61 -0.510027 -3.23729 -0.30928 -0.296352 4538
0.005 0.615 -0.510027 -3.2934 -0.292954 -0.28084 4525
0.005 0.62 -0.510027 -3.33565 -0.276381 -0.265204 4517
0.005 0.625 -0.510027 -3.36374 -0.259633 -0.249507 4498
0.005 0.63 -0.510027 -3.37746 -0.242779 -0.233809 4539
0.005 0.635 -0.510027 -3.37666 -0.225896 -0.218173 4585
0.005 0.64 -0.510027 -3.36125 -0.209049 -0.202661 4592
0.005 0.645 -0.510027 -3.33121 -0.192318 -0.187334 4601
0.005 0.65 -0.510027 -3.28662 -0.175776 -0.172252 4607
0.005 0.655 -0.510027 -3.22757 -0.159486 -0.157476 4606
0.005 0.66 -0.510027 -3.15428 -0.143537 -0.143062 4595
0.005 0.665 -0.510027 -3.067 -0.127984 -0.129068 4627
0.005 0.67 -0.510027 -2.96607 -0.112904 -0.11555 4625
0.005 0.675 -0.510027 -2.85189 -0.098353 -0.10256 4672
0.005 0.68 -0.510027 -2.72493 -0.0844084 -0.0901507 4712
0.005 0.685 -0.510027 -2.58571 -0.0711429 -0.0783699 4658
0.005 0.69 -0.510027 -2.43483 -0.0585876 -0.0672645 4668
0.005 0.695 -0.510027 -2.27294 -0.0468107 -0.0568784 4729
0.005 0.7 -0.510027 -2.10074 -0.0358857 -0.0472525 4726
0.005 0.705 -0.510027 -1.919 -0.0258216 -0.0384247 4753
0.005 0.71 -0.510027 -1.72853 -0.0167191 -0.03043 4737
0.005 0.715 -0.510027 -1.53018 -0.00856676 -0.0232999 4776
0.005 0.72 -0.510027 -1.32483 -0.00141679 -0.0170626 4814
0.005 0.725 -0.510027 -1.11343 0.00467316 -0.0117426 4849
0.005 0.73 -0.510027 -0.896933 0.00970412 -0.0073609 4823
0.005 0.735 -0.510027 -0.676324 0.0136189 -0.00393488 4863
0.005 0.74 -0.510027 -0.452614 0.0164385 -0.00147801 4903
0.005 0.745 -0.510027 -0.226828 0.0181392 -2.5237e-09 4923
0.005 0.75 -0.510027 -5.80833e-07 0.018728 0.000493318 4906
0.005 0.755 -0.510027 0.226827 0.018139 2.5237e-09 4975
0.005 0.76 -0.510027 0.452613 0.0164377 -0.001478 5023
0.005 0.765 -0.510027 0.676323 0.0136186 -0.00393486 5033
0.005 0.77 -0.510027 0.896931 0.00970383 -0.00736088 5038
0.005 0.775 -0.510027 1.11343 0.00467528 -0.0117425 5062
0.005 0.78 -0.510027 1.32483 -0.00141724 -0.0170625 5064
0.005 0.785 -0.510027 1.53017 -0.00857105 -0.0232999 5086
0.005 0.79 -0.510027 1.72853 -0.0167163 -0.03043 5156
0.005 0.795 -0.510027 1.919 -0.0258209 -0.0384247 5204
0.005 0.8 -0.510027 2.10074 -0.0358942 -0.0472524 5231
0.005 0.805 -0.510027 2.27294 -0.0468103 -0.0568783 5278
0.005 0.81 -0.510027 2.43483 -0.0585895 -0.0672645 5295
0.005 0.815 -0.510027 2.58571 -0.0711334 -0.0783699 5325
0.005 0.82 -0.510027 2.72493 -0.0844081 -0.0901507 5382
0.005 0.825 -0.510027 2.85189 -0.0983568 -0.10256 5403
0.005 0.83 -0.510027 2.96607 -0.112905 -0.11555 5471
0.005 0.835 -0.510027 3.067 -0.127984 -0.129068 5520
0.005 0.84 -0.510027 3.15428 -0.143539 -0.143062 5549
0.005 0.845 -0.510027 3.22757 -0.159486 -0.157476 5620
0.005 0.85 -0.510027 3.28662 -0.175775 -0.172252 5680
0.005 0.855 -0.510027 3.33121 -0.192317 -0.187334 5709
0.005 0.86 -0.510027 3.36125 -0.209047 -0.202661 5752
0.005 0.865 -0.510027 3.37666 -0.225893 -0.218173 5819
0.005 0.87 -0.510027 3.37746 -0.242779 -0.233809 5894
0.005 0.875 -0.510027 3.36374 -0.259632 -0.249507 5912
0.005 0.88 -0.510027 3.33565 -0.276381 -0.265204 6038
0.005 0.885 -0.510027 3.2934 -0.292954 -0.28084 6055
0.005 0.89 -0.510027 3.23729 -0.309279 -0.296352 6148
0.005 0.895 -0.510027 3.16766 -0.325292 -0.311679 6241
0.005 0.9 -0.510027 3.08491 -0.340928 -0.326761 6296
0.005 0.905 -0.510027 2.98951 -0.356107 -0.341538 6448
0.005 0.91 -0.510027 2.88197 -0.370786 -0.355951 6457
0.005 0.915 -0.510027 2.76287 -0.384896 -0.369945 6540
0.005 0.92 -0.510027 2.63281 -0.398384 -0.383463 6729
0.005 0.925 -0.510027 2.49246 -0.411197 -0.396453 6822
0.005 0.93 -0.510027 2.34251 -0.423284 -0.408863 6920
0.005 0.935 -0.510027 2.18371 -0.434595 -0.420643 7022
0.005 0.94 -0.510027 2.01681 -0.445105 -0.431749 7198
0.005 0.945 -0.510027 1.84261 -0.454763 -0.442135 7350
0.005 0.95 -0.510027 1.66192 -0.463522 -0.451761 7523
0.005 0.955 -0.510027 1.47559 -0.471366 -0.460589 7701
0.005 0.96 -0.510027 1.28446 -0.478242 -0.468583 7918
0.005 0.965 -0.510027 1.08939 -0.484188 -0.475713 8078
0.005 0.97 -0.510027 0.891245 -0.489161 -0.481951 8446
0.005 0.975 -0.510027 0.690888 -0.493099 -0.487271 8807
0.005 0.98 -0.510027 0.489185 -0.496037 -0.491652 9130
0.005 0.985 -0.510027 0.286991 -0.497986 -0.495078 9535
0.005 0.99 -0.510027 0.085152 -0.498934 -0.497535 8463
0.005 0.995 -0.510027 -0.115502 -0.498839 -0.499013 6904
0.005 1 -0.510027 -0.314159 -0.497756 -0.499507 5814
0.01 0 -0.702341 -0.314159 -0.494726 -0.498029 7362
0.01 0.005 -0.702341 -0.510027 -0.492683 -0.497535 8463
0.01 0.01 -0.702341 -0.702341 -0.489654 -0.496057 7527
0.01 0.015 -0.702341 -0.890361 -0.485652 -0.4936 8694
0.01 0.02 -0.702341 -1.07338 -0.480759 -0.490174 9497
0.01 0.025 -0.702341 -1.25072 -0.474929 -0.485793 9140
0.01 0.03 -0.702341 -1.42175 -0.468278 -0.480473 8805
0.01 0.035 -0.702341 -1.58586 -0.460749 -0.474235 8445
0.01 0.04 -0.702341 -1.74249 -0.452434 -0.467105 8114
0.01 0.045 -0.702341 -1.89111 -0.443338 -0.459111 7914
0.01 0.05 -0.702341 -2.03124 -0.433528 -0.450283 7703
0.01 0.055 -0.702341 -2.16245 -0.423046 -0.440657 7548
0.01 0.06 -0.702341 -2.28433 -0.41193 -0.430271 7358
0.01 0.065 -0.702341 -2.39654 -0.40024 -0.419165 7161
0.01 0.07 -0.702341 -2.49877 -0.387996 -0.407385 7040
0.01 0.075 -0.702341 -2.59075 -0.375276 -0.394975 6922
0.01 0.08 -0.702341 -2.67226 -0.362115 -0.381985 6837
0.01 0.085 -0.702341 -2.74313 -0.348575 -0.368467 6697
0.01 0.09 -0.702341 -2.80322 -0.334711 -0.354474 6558
0.01 0.095 -0.702341 -2.85245 -0.320572 -0.34006 6520
0.01 0.1 -0.702341 -2.89075 -0.306214 -0.325283 6402
0.01 0.105 -0.702341 -2.91813 -0.291692 -0.310201 6278
0.01 0.11 -0.702341 -2.9346 -0.27706 -0.294874 6285
0.01 0.115 -0.702341 -2.94024 -0.262373 -0.279362 6121
0.01 0.12 -0.702341 -2.93514 -0.247685 -0.263726 6134
0.01 0.125 -0.702341 -2.91945 -0.233048 -0.248029 6047
0.01 0.13 -0.702341 -2.89333 -0.218517 -0.232331 5908
0.01 0.135 -0.702341 -2.85699 -0.20414 -0.216695 5887
0.01 0.14 -0.702341 -2.81065 -0.189969 -0.201183 5826
0.01 0.145 -0.702341 -2.75457 -0.176058 -0.185856 5777
0.01 0.15 -0.702341 -2.68905 -0.162452 -0.170774 5745
0.01 0.155 -0.702341 -2.61439 -0.149187 -0.155998 5662
0.01 0.16 -0.702341 -2.53092 -0.13633 -0.141584 5629
0.01 0.165 -0.702341 -2.43899 -0.123898 -0.12759 5582
0.01 0.17 -0.702341 -2.33899 -0.111952 -0.114072 5579
0.01 0.175 -0.702341 -2.23131 -0.100525 -0.101082 5518
0.01 0.18 -0.702341 -2.11635 -0.0896591 -0.0886727 5431
0.01 0.185 -0.702341 -1.99454 -0.0793933 -0.0768919 5419
0.01 0.19 -0.702341 -1.86631 -0.0697415 -0.0657865 5397
0.01 0.195 -0.702341 -1.73212 -0.0607301 -0.0554004 5330
0.01 0.2 -0.702341 -1.59242 -0.0524244 -0.0457744 5323
0.01 0.205 -0.702341 -1.4477 -0.0448338 -0.0369467 5306
0.01 0.21 -0.702341 -1.29842 -0.0379575 -0.028952 5209
0.01 0.215 -0.702341 -1.14507 -0.0318484 -0.0218219 5185
0.01 0.22 -0.702341 -0.988163 -0.0265289 -0.0155846 5147
0.01 0.225 -0.702341 -0.82818 -0.0219829 -0.0102646 5106
0.01 0.23 -0.702341 -0.665633 -0.0182453 -0.00588289 5089
0.01 0.235 -0.702341 -0.501028 -0.0153194 -0.00245687 5082
0.01 0.24 -0.702341 -0.334879 -0.0132401 -1.67915e-09 5046
0.01 0.245 -0.702341 -0.167697 -0.0119841 0.00147801 5021
0.01 0.25 -0.702341 -1.43104e-07 -0.0115573 0.00197132 5006
0.01 0.255 -0.702341 0.167697 -0.0119854 0.00147801 5007
0.01 0.26 -0.702341 0.334878 -0.0132393 1.67915e-09 4958
0.01 0.265 -0.702341 0.501028 -0.0153199 -0.00245686 4955
0.01 0.27 -0.702341 0.665632 -0.0182454 -0.00588288 4925
0.01 0.275 -0.702341 0.82818 -0.021982 -0.0102645 4879
0.01 0.28 -0.702341 0.988162 -0.0265298 -0.0155845 4815
0.01 0.285 -0.702341 1.14507 -0.0318539 -0.0218219 4859
0.01 0.29 -0.702341 1.29842 -0.0379655 -0.028952 4845
0.01 0.295 -0.702341 1.4477 -0.0448337 -0.0369467 4829
0.01 0.3 -0.702341 1.59242 -0.052425 -0.0457744 4778
0.01 0.305 -0.702341 1.73212 -0.0607306 -0.0554004 4795
0.01 0.31 -0.702341 1.86631 -0.0697436 -0.0657865 4795
0.01 0.315 -0.702341 1.99454 -0.0793916 -0.0768919 4733
0.01 0.32 -0.702341 2.11635 -0.0896588 -0.0886727 4727
0.01 0.325 -0.702341 2.23131 -0.100526 -0.101082 4665
0.01 0.33 -0.702341 2.33899 -0.111954 -0.114072 4686
0.01 0.335 -0.702341 2.43899 -0.123901 -0.12759 4692
0.01 0.34 -0.702341 2.53092 -0.13633 -0.141584 4664
0.01 0.345 -0.702341 2.61439 -0.149188 -0.155998 4681
0.01 0.35 -0.702341 2.68905 -0.162449 -0.170774 4633
0.01 0.355 -0.702341 2.75457 -0.176057 -0.185856 4582
0.01 0.36 -0.702341 2.81065 -0.18997 -0.201183 4610
0.01 0.365 -0.702341 2.85699 -0.204143 -0.216695 4616
0.01 0.37 -0.702341 2.89333 -0.218518 -0.232331 4624
0.01 0.375 -0.702341 2.91945 -0.233048 -0.248029 4612
0.01 0.38 -0.702341 2.93514 -0.247685 -0.263726 4549
0.01 0.385 -0.702341 2.94024 -0.262374 -0.279362 4546
0.01 0.39 -0.702341 2.9346 -0.277061 -0.294874 4506
0.01 0.395 -0.702341 2.91813 -0.291693 -0.310201 4517
0.01 0.4 -0.702341 2.89075 -0.306215 -0.325283 4521
0.01 0.405 -0.702341 2.85245 -0.320572 -0.34006 4552
0.01 0.41 -0.702341 2.80322 -0.334712 -0.354473 4559
0.01 0.415 -0.702341 2.74313 -0.348577 -0.368467 4534
0.01 0.42 -0.702341 2.67226 -0.362117 -0.381985 4519
0.01 0.425 -0.702341 2.59075 -0.375273 -0.394975 4529
0.01 0.43 -0.702341 2.49877 -0.387996 -0.407385 4517
0.01 0.435 -0.702341 2.39654 -0.400237 -0.419165 4504
0.01 0.44 -0.702341 2.28433 -0.411937 -0.430271 4467
0.01 0.445 -0.702341 2.16245 -0.423052 -0.440657 4477
0.01 0.45 -0.702341 2.03124 -0.433536 -0.450283 4486
0.01 0.455 -0.702341 1.89111 -0.443349 -0.459111 4457
0.01 0.46 -0.702341 1.74249 -0.452433 -0.467105 4441
0.01 0.465 -0.702341 1.58586 -0.46075 -0.474235 4431
0.01 0.47 -0.702341 1.42175 -0.468264 -0.480473 4452
0.01 0.475 -0.702341 1.25072 -0.474957 -0.485793 4457
0.01 0.48 -0.702341 1.07338 -0.480765 -0.490174 4492
0.01 0.485 -0.702341 0.890361 -0.485664 -0.4936 4476
0.01 0.49 -0.702341 0.702341 -0.489658 -0.496057 4411
0.01 0.495 -0.702341 0.510028 -0.492676 -0.497535 4430
0.01 0.5 -0.702341 0.31416 -0.494746 -0.498029 4458
0.01 0.505 -0.702341 0.115503 -0.49582 -0.497535 4430
0.01 0.51 -0.702341 -0.085151 -0.495899 -0.496057 4411
0.01 0.515 -0.702341 -0.28699 -0.494966 -0.4936 4474
0.01 0.52 -0.702341 -0.489184 -0.493029 -0.490174 4494
0.01 0.525 -0.702341 -0.690887 -0.490069 -0.485793 4457
0.01 0.53 -0.702341 -0.891244 -0.486125 -0.480473 4452
0.01 0.535 -0.702341 -1.08939 -0.481171 -0.474235 4431
0.01 0.54 -0.702341 -1.28446 -0.475226 -0.467105 4441
0.01 0.545 -0.702341 -1.47559 -0.468325 -0.459111 4457
0.01 0.55 -0.702341 -1.66192 -0.460492 -0.450283 4484
0.01 0.555 -0.702341 -1.84261 -0.451721 -0.440657 4479
0.01 0.56 -0.702341 -2.01681 -0.442075 -0.430271 4467
0.01 0.565 -0.702341 -2.1837 -0.431575 -0.419165 4504
0.01 0.57 -0.702341 -2.34251 -0.420263 -0.407385 4517
0.01 0.575 -0.702341 -2.49246 -0.408174 -0.394975 4529
0.01 0.58 -0.702341 -2.63281 -0.395357 -0.381985 4519
0.01 0.585 -0.702341 -2.76287 -0.381867 -0.368467 4532
0.01 0.59 -0.702341 -2.88197 -0.36776 -0.354474 4561
0.01 0.595 -0.702341 -2.98951 -0.353081 -0.34006 4552
0.01 0.6 -0.702341 -3.08491 -0.337894 -0.325283 4521
0.01 0.605 -0.702341 -3.16766 -0.322261 -0.310201 4517
0.01 0.61 -0.702341 -3.23729 -0.30625 -0.294874 4506
0.01 0.615 -0.702341 -3.2934 -0.289923 -0.279362 4546
0.01 0.62 -0.702341 -3.33565 -0.273351 -0.263726 4547
0.01 0.625 -0.702341 -3.36374 -0.256602 -0.248029 4614
0.01 0.63 -0.702341 -3.37746 -0.239751 -0.232331 4624
0.01 0.635 -0.702341 -3.37666 -0.222864 -0.216695 4616
0.01 0.64 -0.702341 -3.36125 -0.206019 -0.201183 4610
0.01 0.645 -0.702341 -3.33121 -0.18929 -0.185856 4582
0.01 0.65 -0.702341 -3.28662 -0.172747 -0.170774 4633
0.01 0.655 -0.702341 -3.22757 -0.156459 -0.155998 4679
0.01 0.66 -0.702341 -3.15428 -0.1405 -0.141584 4666
0.01 0.665 -0.702341 -3.067 -0.124946 -0.12759 4692
0.01 0.67 -0.702341 -2.96607 -0.109863 -0.114072 4686
0.01 0.675 -0.702341 -2.85189 -0.0953275 -0.101082 4665
0.01 0.68 -0.702341 -2.72493 -0.081378 -0.0886727 4727
0.01 0.685 -0.702341 -2.58571 -0.0681084 -0.0768919 4733
0.01 0.69 -0.702341 -2.43483 -0.0555472 -0.0657865 4793
0.01 0.695 -0.702341 -2.27294 -0.0437796 -0.0554004 4797
0.01 0.7 -0.702341 -2.10074 -0.0328483 -0.0457744 4778
0.01 0.705 -0.702341 -1.919 -0.0227983 -0.0369467 4829
0.01 0.71 -0.702341 -1.72853 -0.0136837 -0.028952 4845
0.01 0.715 -0.702341 -1.53018 -0.00554224 -0.0218219 4859
0.01 0.72 -0.702341 -1.32483 0.00161059 -0.0155846 4815
0.01 0.725 -0.702341 -1.11343 0.00770335 -0.0102646 4877
0.01 0.73 -0.702341 -0.896933 0.0127312 -0.00588289 4927
0.01 0.735 -0.702341 -0.676324 0.016665 -0.00245687 4955
0.01 0.74 -0.702341 -0.452614 0.0194762 -5.03744e-09 4958
0.01 0.745 -0.702341 -0.226828 0.0211833 0.001478 5007
0.01 0.75 -0.702341 -5.80833e-07 0.0217498 0.00197132 5006
0.01 0.755 -0.702341 0.226827 0.0211833 0.00147801 5021
0.01 0.76 -0.702341 0.452613 0.0194756 5.03743e-09 5044