TITLE="Pressure integrated from Omni2D"
VARIABLES = "X","Y","Dudt","DvDt","Pcal","Preal","Count"
ZONE I=201, J=201
0 0 -0 -0 -0.499832 -0.5 1326
0 0.005 -0.0197262 -0.197262 -0.499322 -0.499507 5814
0 0.01 -0.0393746 -0.393746 -0.49785 -0.498029 7362
0 0.015 -0.0588676 -0.588676 -0.495408 -0.495572 7008
0 0.02 -0.0781282 -0.781282 -0.49199 -0.492146 6664
0 0.025 -0.0970806 -0.970805 -0.487596 -0.487764 6417
0 0.03 -0.11565 -1.1565 -0.482282 -0.482444 6151
0 0.035 -0.133763 -1.33763 -0.476044 -0.476207 5970
0 0.04 -0.151347 -1.51347 -0.468919 -0.469077 5856
0 0.045 -0.168335 -1.68335 -0.460922 -0.461082 5681
0 0.05 -0.184658 -1.84658 -0.45211 -0.452254 5558
0 0.055 -0.200253 -2.00253 -0.44249 -0.442628 5415
0 0.06 -0.215057 -2.15057 -0.43211 -0.432242 5324
0 0.065 -0.229012 -2.29012 -0.421005 -0.421137 5208
0 0.07 -0.242064 -2.42064 -0.409225 -0.409356 5097
0 0.075 -0.25416 -2.5416 -0.39682 -0.396946 5058
0 0.08 -0.265253 -2.65253 -0.383834 -0.383957 4957
0 0.085 -0.2753 -2.753 -0.370316 -0.370438 4856
0 0.09 -0.28426 -2.8426 -0.35633 -0.356445 4846
0 0.095 -0.292098 -2.92098 -0.341917 -0.342031 4751
0 0.1 -0.298783 -2.98783 -0.327147 -0.327254 4664
0 0.105 -0.304289 -3.04289 -0.31207 -0.312172 4690
0 0.11 -0.308595 -3.08595 -0.296747 -0.296845 4550
0 0.115 -0.311682 -3.11682 -0.28124 -0.281333 4561
0 0.12 -0.313539 -3.13539 -0.26561 -0.265698 4457
0 0.125 -0.314159 -3.14159 -0.249917 -0.25 4439
0 0.13 -0.313539 -3.13539 -0.234224 -0.234302 4400
0 0.135 -0.311682 -3.11682 -0.218595 -0.218667 4352
0 0.14 -0.308595 -3.08595 -0.203086 -0.203155 4309
0 0.145 -0.304289 -3.04289 -0.187762 -0.187828 4265
0 0.15 -0.298783 -2.98783 -0.172686 -0.172746 4242
0 0.155 -0.292098 -2.92098 -0.157915 -0.157969 4232
0 0.16 -0.28426 -2.8426 -0.143506 -0.143555 4119
0 0.165 -0.2753 -2.753 -0.129517 -0.129562 4159
0 0.17 -0.265253 -2.65253 -0.11601 -0.116043 4085
0 0.175 -0.25416 -2.5416 -0.103016 -0.103054 4075
0 0.18 -0.242064 -2.42064 -0.0906205 -0.090644 4084
0 0.185 -0.229012 -2.29012 -0.0788427 -0.0788632 4024
0 0.19 -0.215057 -2.15057 -0.0677351 -0.0677579 4028
0 0.195 -0.200253 -2.00253 -0.0573583 -0.0573717 3921
0 0.2 -0.184658 -1.84658 -0.0477213 -0.0477458 3905
0 0.205 -0.168335 -1.68335 -0.0389138 -0.038918 3910
0 0.21 -0.151347 -1.51347 -0.0309247 -0.0309233 3867
0 0.215 -0.133763 -1.33763 -0.0237895 -0.0237932 3846
0 0.22 -0.11565 -1.1565 -0.0175616 -0.0175559 3863
0 0.225 -0.0970806 -0.970806 -0.0122451 -0.0122359 3827
0 0.23 -0.0781282 -0.781282 -0.00785916 -0.00785421 3851
0 0.235 -0.0588676 -0.588676 -0.00443937 -0.00442819 3772
0 0.24 -0.0393746 -0.393746 -0.00197547 -0.00197133 3762
0 0.245 -0.0197262 -0.197262 -0.000484426 -0.000493319 3762
0 0.25 -1.68357e-08 -1.68357e-07 1.1187e-05 -3.60822e-16 3726
0 0.255 0.0197262 0.197262 -0.000480283 -0.000493317 3691
0 0.26 0.0393746 0.393746 -0.00197725 -0.00197132 3708
0 0.265 0.0588676 0.588676 -0.00443761 -0.00442818 3704
0 0.27 0.0781282 0.781282 -0.00785871 -0.00785421 3658
0 0.275 0.0970805 0.970805 -0.0122437 -0.0122359 3642
0 0.28 0.11565 1.1565 -0.0175621 -0.0175559 3647
0 0.285 0.133762 1.33762 -0.0237901 -0.0237932 3627
0 0.29 0.151347 1.51347 -0.0309219 -0.0309233 3635
0 0.295 0.168335 1.68335 -0.0389139 -0.038918 3608
0 0.3 0.184658 1.84658 -0.0477246 -0.0477457 3598
0 0.305 0.200253 2.00253 -0.0573569 -0.0573717 3577
0 0.31 0.215057 2.15057 -0.0677352 -0.0677578 3599
0 0.315 0.229012 2.29012 -0.0788418 -0.0788632 3526
0 0.32 0.242064 2.42064 -0.0906204 -0.090644 3552
0 0.325 0.25416 2.5416 -0.103016 -0.103054 3546
0 0.33 0.265253 2.65253 -0.116009 -0.116043 3553
0 0.335 0.2753 2.753 -0.129523 -0.129562 3537
0 0.34 0.28426 2.8426 -0.14351 -0.143555 3520
0 0.345 0.292098 2.92098 -0.157916 -0.157969 3496
0 0.35 0.298783 2.98783 -0.172687 -0.172746 3465
0 0.355 0.304289 3.04289 -0.187764 -0.187828 3430
0 0.36 0.308595 3.08595 -0.203087 -0.203155 3484
0 0.365 0.311682 3.11682 -0.218596 -0.218667 3470
0 0.37 0.313539 3.13539 -0.234225 -0.234302 3456
0 0.375 0.314159 3.14159 -0.249918 -0.25 3456
0 0.38 0.313539 3.13539 -0.265611 -0.265698 3435
0 0.385 0.311682 3.11682 -0.281241 -0.281333 3426
0 0.39 0.308595 3.08595 -0.296748 -0.296845 3415
0 0.395 0.304289 3.04289 -0.31207 -0.312172 3400
0 0.4 0.298783 2.98783 -0.327148 -0.327254 3405
0 0.405 0.292098 2.92098 -0.34192 -0.342031 3423
0 0.41 0.28426 2.8426 -0.356328 -0.356445 3454
0 0.415 0.2753 2.753 -0.370317 -0.370438 3452
0 0.42 0.265253 2.65253 -0.383833 -0.383957 3376
0 0.425 0.25416 2.5416 -0.396813 -0.396946 3386
0 0.43 0.242064 2.42064 -0.409224 -0.409356 3410
0 0.435 0.229012 2.29012 -0.421002 -0.421137 3394
0 0.44 0.215057 2.15057 -0.4321 -0.432242 3416
0 0.445 0.200253 2.00253 -0.442487 -0.442628 3353
0 0.45 0.184658 1.84658 -0.4521 -0.452254 3341
0 0.455 0.168335 1.68335 -0.460926 -0.461082 3379
0 0.46 0.151347 1.51347 -0.46892 -0.469077 3348
0 0.465 0.133763 1.33763 -0.476055 -0.476207 3357
0 0.47 0.11565 1.1565 -0.482286 -0.482444 3363
0 0.475 0.0970806 0.970806 -0.487599 -0.487764 3343
0 0.48 0.0781283 0.781283 -0.491988 -0.492146 3309
0 0.485 0.0588676 0.588676 -0.495409 -0.495572 3336
0 0.49 0.0393746 0.393746 -0.497859 -0.498029 3370
0 0.495 0.0197263 0.197263 -0.499335 -0.499507 3378
0 0.5 3.36715e-08 3.36715e-07 -0.499827 -0.5 3376
0 0.505 -0.0197262 -0.197262 -0.499334 -0.499507 3378
0 0.51 -0.0393746 -0.393746 -0.497858 -0.498029 3370
0 0.515 -0.0588675 -0.588675 -0.495408 -0.495572 3334
0 0.52 -0.0781282 -0.781282 -0.491988 -0.492146 3311
0 0.525 -0.0970805 -0.970805 -0.487599 -0.487764 3343
0 0.53 -0.11565 -1.1565 -0.482286 -0.482444 3363
0 0.535 -0.133762 -1.33762 -0.476056 -0.476207 3357
0 0.54 -0.151347 -1.51347 -0.468921 -0.469077 3348
0 0.545 -0.168335 -1.68335 -0.460926 -0.461082 3379
0 0.55 -0.184658 -1.84658 -0.452101 -0.452254 3339
0 0.555 -0.200253 -2.00253 -0.442486 -0.442628 3355
0 0.56 -0.215057 -2.15057 -0.432105 -0.432242 3415
0 0.565 -0.229012 -2.29012 -0.421002 -0.421137 3394
0 0.57 -0.242064 -2.42064 -0.409225 -0.409356 3410
0 0.575 -0.25416 -2.5416 -0.396813 -0.396946 3386
0 0.58 -0.265253 -2.65253 -0.383833 -0.383957 3374
0 0.585 -0.2753 -2.753 -0.370317 -0.370438 3450
0 0.59 -0.28426 -2.8426 -0.356328 -0.356445 3454
0 0.595 -0.292098 -2.92098 -0.34192 -0.342031 3423
0 0.6 -0.298783 -2.98783 -0.327148 -0.327254 3405
0 0.605 -0.304289 -3.04289 -0.312069 -0.312173 3400
0 0.61 -0.308595 -3.08595 -0.296748 -0.296845 3415
0 0.615 -0.311682 -3.11682 -0.281241 -0.281333 3426
0 0.62 -0.313539 -3.13539 -0.265611 -0.265698 3434
0 0.625 -0.314159 -3.14159 -0.249918 -0.25 3458
0 0.63 -0.313539 -3.13539 -0.234225 -0.234302 3456
0 0.635 -0.311682 -3.11682 -0.218597 -0.218667 3470
0 0.64 -0.308595 -3.08595 -0.203086 -0.203155 3484
0 0.645 -0.304289 -3.04289 -0.187764 -0.187828 3430
0 0.65 -0.298783 -2.98783 -0.172688 -0.172746 3465
0 0.655 -0.292098 -2.92098 -0.157916 -0.157969 3494
0 0.66 -0.28426 -2.8426 -0.14351 -0.143555 3520
0 0.665 -0.2753 -2.753 -0.129517 -0.129562 3537
0 0.67 -0.265253 -2.65253 -0.11601 -0.116043 3553
0 0.675 -0.25416 -2.5416 -0.103016 -0.103054 3546
0 0.68 -0.242064 -2.42064 -0.0906186 -0.090644 3552
0 0.685 -0.229012 -2.29012 -0.0788417 -0.0788632 3526
0 0.69 -0.215057 -2.15057 -0.0677355 -0.0677579 3597
0 0.695 -0.200253 -2.00253 -0.0573575 -0.0573717 3579
0 0.7 -0.184658 -1.84658 -0.0477235 -0.0477458 3598
0 0.705 -0.168335 -1.68335 -0.0389133 -0.038918 3608
0 0.71 -0.151347 -1.51347 -0.0309214 -0.0309233 3635
0 0.715 -0.133763 -1.33763 -0.0237893 -0.0237933 3628
0 0.72 -0.11565 -1.1565 -0.017559 -0.0175559 3647
0 0.725 -0.0970806 -0.970806 -0.0122415 -0.0122359 3640
0 0.73 -0.0781283 -0.781283 -0.00785803 -0.00785422 3660
0 0.735 -0.0588676 -0.588676 -0.00443589 -0.00442819 3704
0 0.74 -0.0393746 -0.393746 -0.00196 -0.00197133 3708
0 0.745 -0.0197263 -0.197263 -0.000484783 -0.00049332 3691
0 0.75 -5.05072e-08 -5.05072e-07 7.9982e-06 -3.21965e-15 3726
0 0.755 0.0197262 0.197262 -0.00049131 -0.000493315 3762
0 0.76 0.0393745 0.393745 -0.00198265 -0.00197132 3760
0 0.765 0.0588675 0.588675 -0.00443583 -0.00442818 3775
0 0.77 0.0781282 0.781282 -0.00785794 -0.0078542 3851
0 0.775 0.0970805 0.970805 -0.0122424 -0.0122359 3827
0 0.78 0.11565 1.1565 -0.0175592 -0.0175559 3863
0 0.785 0.133762 1.33762 -0.0237893 -0.0237932 3846
0 0.79 0.151347 1.51347 -0.0309215 -0.0309233 3867
0 0.795 0.168335 1.68335 -0.0389142 -0.038918 3908
0 0.8 0.184658 1.84658 -0.0477231 -0.0477457 3907
0 0.805 0.200253 2.00253 -0.057357 -0.0573717 3921
0 0.81 0.215057 2.15057 -0.0677353 -0.0677578 4028
0 0.815 0.229012 2.29012 -0.078841 -0.0788632 4024
0 0.82 0.242064 2.42064 -0.0906194 -0.090644 4084
0 0.825 0.25416 2.5416 -0.103016 -0.103054 4075
0 0.83 0.265253 2.65253 -0.11601 -0.116043 4083
0 0.835 0.2753 2.753 -0.129515 -0.129562 4161
0 0.84 0.28426 2.8426 -0.143507 -0.143555 4119
0 0.845 0.292098 2.92098 -0.157915 -0.157969 4232
0 0.85 0.298783 2.98783 -0.172687 -0.172746 4242
0 0.855 0.304289 3.04289 -0.187763 -0.187827 4265
0 0.86 0.308595 3.08595 -0.203086 -0.203155 4309
0 0.865 0.311682 3.11682 -0.218596 -0.218667 4350
0 0.87 0.313539 3.13539 -0.234224 -0.234302 4402
0 0.875 0.314159 3.14159 -0.249917 -0.25 4439
0 0.88 0.313539 3.13539 -0.26561 -0.265698 4457
0 0.885 0.311682 3.11682 -0.281241 -0.281333 4561
0 0.89 0.308595 3.08595 -0.296747 -0.296845 4550
0 0.895 0.304289 3.04289 -0.312071 -0.312172 4690
0 0.9 0.298783 2.98783 -0.327148 -0.327254 4662
0 0.905 0.292098 2.92098 -0.341917 -0.342031 4753
0 0.91 0.28426 2.8426 -0.356323 -0.356445 4846
0 0.915 0.2753 2.753 -0.370317 -0.370438 4856
0 0.92 0.265253 2.65253 -0.383834 -0.383957 4957
0 0.925 0.25416 2.5416 -0.396816 -0.396946 5058
0 0.93 0.242064 2.42064 -0.409224 -0.409356 5097
0 0.935 0.229012 2.29012 -0.421003 -0.421137 5206
0 0.94 0.215057 2.15057 -0.432106 -0.432242 5326
0 0.945 0.200253 2.00253 -0.442488 -0.442628 5415
0 0.95 0.184658 1.84658 -0.45209 -0.452254 5557
0 0.955 0.168335 1.68335 -0.460927 -0.461082 5681
0 0.96 0.151347 1.51347 -0.468919 -0.469077 5857
0 0.965 0.133763 1.33763 -0.476048 -0.476207 5970
0 0.97 0.11565 1.1565 -0.482273 -0.482444 6149
0 0.975 0.0970806 0.970806 -0.487597 -0.487764 6419
0 0.98 0.0781283 0.781283 -0.491988 -0.492146 6664
0 0.985 0.0588676 0.588676 -0.495408 -0.495572 7008
0 0.99 0.0393747 0.393747 -0.497853 -0.498029 7362
0 0.995 0.0197263 0.197263 -0.499327 -0.499507 5814
0 1 6.73429e-08 6.73429e-07 -0.499833 -0.5 1326
0.005 0 -0.197262 -0.0197262 -0.499321 -0.499507 5814
0.005 0.005 -0.21695 -0.21695 -0.498728 -0.499013 6905
0.005 0.01 -0.236559 -0.413317 -0.497158 -0.497535 8463
0.005 0.015 -0.256014 -0.608053 -0.494636 -0.495079 9535
0.005 0.02 -0.275236 -0.800389 -0.491113 -0.491652 9130
0.005 0.025 -0.294151 -0.989566 -0.48662 -0.487271 8805
0.005 0.03 -0.312684 -1.17484 -0.481225 -0.481951 8448
0.005 0.035 -0.330761 -1.35547 -0.474895 -0.475713 8078
0.005 0.04 -0.348311 -1.53076 -0.467683 -0.468583 7918
0.005 0.045 -0.365265 -1.7 -0.4596 -0.460589 7700
0.005 0.05 -0.381556 -1.86254 -0.450691 -0.451761 7523
0.005 0.055 -0.39712 -2.01773 -0.440981 -0.442135 7350
0.005 0.06 -0.411895 -2.16495 -0.430535 -0.431749 7196
0.005 0.065 -0.425823 -2.30363 -0.419362 -0.420643 7024
0.005 0.07 -0.438848 -2.43321 -0.40752 -0.408863 6920
0.005 0.075 -0.450921 -2.5532 -0.395061 -0.396453 6822
0.005 0.08 -0.461992 -2.6631 -0.382011 -0.383463 6729
0.005 0.085 -0.472019 -2.7625 -0.368453 -0.369945 6540
0.005 0.09 -0.480961 -2.851 -0.354416 -0.355952 6457
0.005 0.095 -0.488784 -2.92824 -0.339965 -0.341538 6446
0.005 0.1 -0.495456 -2.99393 -0.32516 -0.326761 6297
0.005 0.105 -0.500951 -3.0478 -0.310057 -0.311679 6241
0.005 0.11 -0.505248 -3.08964 -0.294713 -0.296352 6148
0.005 0.115 -0.508329 -3.11929 -0.27919 -0.28084 6055
0.005 0.12 -0.510183 -3.13663 -0.263551 -0.265204 6038
0.005 0.125 -0.510802 -3.14159 -0.247854 -0.249507 5912
0.005 0.13 -0.510183 -3.13415 -0.232165 -0.233809 5892
0.005 0.135 -0.508329 -3.11435 -0.216543 -0.218173 5821
0.005 0.14 -0.505248 -3.08225 -0.201053 -0.202661 5752
0.005 0.145 -0.500951 -3.03799 -0.185749 -0.187334 5709
0.005 0.15 -0.495456 -2.98174 -0.170701 -0.172252 5680
0.005 0.155 -0.488784 -2.91372 -0.155967 -0.157476 5620
0.005 0.16 -0.480961 -2.8342 -0.141589 -0.143062 5549
0.005 0.165 -0.472019 -2.7435 -0.127655 -0.129068 5518
0.005 0.17 -0.461992 -2.64196 -0.114184 -0.11555 5473
0.005 0.175 -0.450921 -2.53001 -0.101249 -0.10256 5403
0.005 0.18 -0.438848 -2.40806 -0.0889139 -0.0901507 5383
0.005 0.185 -0.425823 -2.27662 -0.0771982 -0.0783699 5325
0.005 0.19 -0.411895 -2.13619 -0.0661667 -0.0672645 5295
0.005 0.195 -0.39712 -1.98733 -0.0558532 -0.0568784 5278
0.005 0.2 -0.381556 -1.83062 -0.0463122 -0.0472524 5229
0.005 0.205 -0.365265 -1.66669 -0.0375699 -0.0384247 5206
0.005 0.21 -0.348311 -1.49619 -0.0296696 -0.03043 5156
0.005 0.215 -0.330761 -1.31978 -0.02263 -0.0232999 5086
0.005 0.22 -0.312684 -1.13816 -0.0164877 -0.0170626 5064
0.005 0.225 -0.294151 -0.952045 -0.0112697 -0.0117426 5062
0.005 0.23 -0.275236 -0.762176 -0.00697361 -0.00736089 5039
0.005 0.235 -0.256014 -0.569299 -0.00364192 -0.00393487 5031
0.005 0.24 -0.236559 -0.374175 -0.00127603 -0.00147801 5025
0.005 0.245 -0.21695 -0.177575 8.63485e-05 -8.41233e-10 4975
0.005 0.25 -0.197262 0.0197261 0.000496548 0.000493318 4906
0.005 0.255 -0.177575 0.216949 -8.90084e-05 8.41232e-10 4923
0.005 0.26 -0.157965 0.413316 -0.00166978 -0.00147801 4903
0.005 0.265 -0.138511 0.608052 -0.00422158 -0.00393487 4863
0.005 0.27 -0.119288 0.800389 -0.00774391 -0.00736089 4821
0.005 0.275 -0.100373 0.989566 -0.0122325 -0.0117425 4851
0.005 0.28 -0.0818407 1.17484 -0.0176321 -0.0170626 4814
0.005 0.285 -0.0637637 1.35547 -0.0239707 -0.0232999 4776
0.005 0.29 -0.0462135 1.53076 -0.0311766 -0.03043 4738
0.005 0.295 -0.0292595 1.7 -0.0392463 -0.0384247 4753
0.005 0.3 -0.0129684 1.86254 -0.0481534 -0.0472524 4726
0.005 0.305 0.00259525 2.01773 -0.0578541 -0.0568784 4727
0.005 0.31 0.0173702 2.16495 -0.0683243 -0.0672645 4670
0.005 0.315 0.0312981 2.30363 -0.079497 -0.0783699 4658
0.005 0.32 0.044324 2.43321 -0.0913396 -0.0901507 4712
0.005 0.325 0.0563964 2.5532 -0.103803 -0.10256 4672
0.005 0.33 0.0674678 2.6631 -0.116839 -0.11555 4625
0.005 0.335 0.0774944 2.7625 -0.130405 -0.129068 4627
0.005 0.34 0.0864366 2.851 -0.144437 -0.143062 4593
0.005 0.345 0.0942593 2.92824 -0.158884 -0.157476 4608
0.005 0.35 0.100931 2.99393 -0.17369 -0.172252 4607
0.005 0.355 0.106427 3.0478 -0.188794 -0.187334 4601
0.005 0.36 0.110723 3.08964 -0.204138 -0.202661 4592
0.005 0.365 0.113805 3.11929 -0.219658 -0.218173 4585
0.005 0.37 0.115658 3.13663 -0.235297 -0.233809 4539
0.005 0.375 0.116277 3.14159 -0.250994 -0.249507 4497
0.005 0.38 0.115658 3.13415 -0.266683 -0.265204 4519
0.005 0.385 0.113805 3.11435 -0.282305 -0.28084 4525
0.005 0.39 0.110723 3.08225 -0.297797 -0.296352 4538
0.005 0.395 0.106427 3.03799 -0.313097 -0.311679 4537
0.005 0.4 0.100931 2.98174 -0.328145 -0.326761 4503
0.005 0.405 0.0942593 2.91372 -0.342884 -0.341538 4508
0.005 0.41 0.0864367 2.8342 -0.357255 -0.355951 4459
0.005 0.415 0.0774944 2.7435 -0.371201 -0.369945 4453
0.005 0.42 0.0674678 2.64196 -0.384661 -0.383463 4436
0.005 0.425 0.0563964 2.53001 -0.397594 -0.396453 4452
0.005 0.43 0.044324 2.40806 -0.409939 -0.408863 4449
0.005 0.435 0.0312981 2.27662 -0.421653 -0.420643 4437
0.005 0.44 0.0173702 2.13619 -0.432678 -0.431749 4425
0.005 0.445 0.00259529 1.98733 -0.442987 -0.442135 4437
0.005 0.45 -0.0129684 1.83062 -0.452531 -0.451761 4444
0.005 0.455 -0.0292594 1.66669 -0.461283 -0.460589 4434
0.005 0.46 -0.0462135 1.49619 -0.469178 -0.468583 4434
0.005 0.465 -0.0637636 1.31978 -0.476232 -0.475713 4452
0.005 0.47 -0.0818407 1.13816 -0.482363 -0.481951 4481
0.005 0.475 -0.100373 0.952045 -0.487595 -0.487271 4451
0.005 0.48 -0.119288 0.762176 -0.491875 -0.491652 4430
0.005 0.485 -0.138511 0.569299 -0.495217 -0.495079 4457
0.005 0.49 -0.157965 0.374176 -0.49756 -0.497535 4433
0.005 0.495 -0.177575 0.177575 -0.498947 -0.499013 4439
0.005 0.5 -0.197262 -0.0197259 -0.499335 -0.499507 4418
0.005 0.505 -0.216949 -0.216949 -0.498757 -0.499013 4439
0.005 0.51 -0.236559 -0.413316 -0.497175 -0.497535 4433
0.005 0.515 -0.256014 -0.608052 -0.494617 -0.495079 4455
0.005 0.52 -0.275236 -0.800388 -0.491093 -0.491652 4432
0.005 0.525 -0.294151 -0.989566 -0.486621 -0.487271 4451
0.005 0.53 -0.312684 -1.17484 -0.481212 -0.481951 4481
0.005 0.535 -0.330761 -1.35547 -0.474896 -0.475713 4452
0.005 0.54 -0.348311 -1.53076 -0.467681 -0.468583 4434
0.005 0.545 -0.365265 -1.7 -0.459591 -0.460589 4434
0.005 0.55 -0.381556 -1.86254 -0.450684 -0.451761 4442
0.005 0.555 -0.39712 -2.01773 -0.440984 -0.442135 4440
0.005 0.56 -0.411895 -2.16495 -0.43053 -0.431749 4425
0.005 0.565 -0.425823 -2.30363 -0.41936 -0.420643 4437
0.005 0.57 -0.438848 -2.43321 -0.407519 -0.408863 4449
0.005 0.575 -0.450921 -2.5532 -0.395055 -0.396453 4454
0.005 0.58 -0.461992 -2.6631 -0.38201 -0.383463 4436
0.005 0.585 -0.472019 -2.7625 -0.368452 -0.369945 4451
0.005 0.59 -0.480961 -2.851 -0.354416 -0.355952 4461
0.005 0.595 -0.488784 -2.92824 -0.339969 -0.341538 4508
0.005 0.6 -0.495456 -2.99393 -0.325163 -0.326761 4503
0.005 0.605 -0.500951 -3.0478 -0.310058 -0.311679 4537
0.005 0.61 -0.505248 -3.08964 -0.294713 -0.296352 4538
0.005 0.615 -0.508329 -3.11929 -0.279191 -0.28084 4525
0.005 0.62 -0.510183 -3.13663 -0.263551 -0.265204 4517
0.005 0.625 -0.510802 -3.14159 -0.247856 -0.249507 4498
0.005 0.63 -0.510183 -3.13415 -0.232165 -0.233809 4539
0.005 0.635 -0.508329 -3.11435 -0.216544 -0.218173 4585
0.005 0.64 -0.505248 -3.08225 -0.201053 -0.202661 4592
0.005 0.645 -0.500951 -3.03799 -0.18575 -0.187334 4601
0.005 0.65 -0.495456 -2.98174 -0.170702 -0.172252 4607
0.005 0.655 -0.488784 -2.91372 -0.155965 -0.157476 4606
0.005 0.66 -0.480961 -2.8342 -0.141591 -0.143062 4595
0.005 0.665 -0.472019 -2.7435 -0.127654 -0.129068 4627
0.005 0.67 -0.461992 -2.64196 -0.114185 -0.11555 4625
0.005 0.675 -0.450921 -2.53001 -0.101251 -0.10256 4672
0.005 0.68 -0.438848 -2.40807 -0.0889137 -0.0901507 4712
0.005 0.685 -0.425823 -2.27662 -0.0771975 -0.0783699 4658
0.005 0.69 -0.411895 -2.13619 -0.0661605 -0.0672645 4668
0.005 0.695 -0.39712 -1.98733 -0.0558607 -0.0568784 4729
0.005 0.7 -0.381556 -1.83062 -0.0463124 -0.0472525 4726
0.005 0.705 -0.365265 -1.66669 -0.0375737 -0.0384247 4753
0.005 0.71 -0.348311 -1.49619 -0.0296644 -0.03043 4737
0.005 0.715 -0.330761 -1.31978 -0.022629 -0.0232999 4776
0.005 0.72 -0.312684 -1.13816 -0.0164826 -0.0170626 4814
0.005 0.725 -0.294151 -0.952045 -0.0112634 -0.0117426 4849
0.005 0.73 -0.275236 -0.762176 -0.00697308 -0.0073609 4823
0.005 0.735 -0.256014 -0.569299 -0.00364645 -0.00393488 4863
0.005 0.74 -0.236559 -0.374176 -0.00127192 -0.00147801 4903
0.005 0.745 -0.21695 -0.177575 8.77492e-05 -2.5237e-09 4923
0.005 0.75 -0.197262 0.0197257 0.000485014 0.000493318 4906
0.005 0.755 -0.177575 0.216949 -0.000103462 2.5237e-09 4975
0.005 0.76 -0.157965 0.413316 -0.00166993 -0.001478 5023
0.005 0.765 -0.138511 0.608052 -0.00422295 -0.00393486 5033
0.005 0.77 -0.119288 0.800388 -0.00774165 -0.00736088 5038
0.005 0.775 -0.100373 0.989566 -0.0122345 -0.0117425 5062
0.005 0.78 -0.0818407 1.17484 -0.0176289 -0.0170625 5064
0.005 0.785 -0.0637637 1.35547 -0.0239697 -0.0232999 5086
0.005 0.79 -0.0462135 1.53076 -0.0311759 -0.03043 5156
0.005 0.795 -0.0292595 1.7 -0.0392431 -0.0384247 5204
0.005 0.8 -0.0129685 1.86254 -0.0481506 -0.0472524 5231
0.005 0.805 0.00259523 2.01773 -0.0578602 -0.0568783 5278
0.005 0.81 0.0173702 2.16495 -0.0683211 -0.0672645 5295
0.005 0.815 0.0312981 2.30363 -0.0794955 -0.0783699 5325
0.005 0.82 0.044324 2.43321 -0.0913407 -0.0901507 5382
0.005 0.825 0.0563964 2.5532 -0.103802 -0.10256 5403
0.005 0.83 0.0674678 2.6631 -0.116833 -0.11555 5471
0.005 0.835 0.0774944 2.7625 -0.130406 -0.129068 5520
0.005 0.84 0.0864366 2.851 -0.144439 -0.143062 5549
0.005 0.845 0.0942593 2.92824 -0.158879 -0.157476 5620
0.005 0.85 0.100931 2.99393 -0.17369 -0.172252 5680
0.005 0.855 0.106427 3.0478 -0.188795 -0.187334 5709
0.005 0.86 0.110723 3.08964 -0.20414 -0.202661 5752
0.005 0.865 0.113805 3.11929 -0.219656 -0.218173 5819
0.005 0.87 0.115658 3.13663 -0.235296 -0.233809 5894
0.005 0.875 0.116277 3.14159 -0.250993 -0.249507 5912
0.005 0.88 0.115658 3.13415 -0.266683 -0.265204 6038
0.005 0.885 0.113805 3.11435 -0.282304 -0.28084 6055
0.005 0.89 0.110723 3.08225 -0.297797 -0.296352 6148
0.005 0.895 0.106427 3.03799 -0.313096 -0.311679 6241
0.005 0.9 0.100931 2.98174 -0.328144 -0.326761 6296
0.005 0.905 0.0942593 2.91372 -0.342883 -0.341538 6448
0.005 0.91 0.0864367 2.8342 -0.357254 -0.355951 6457
0.005 0.915 0.0774944 2.7435 -0.371201 -0.369945 6540
0.005 0.92 0.0674678 2.64196 -0.38467 -0.383463 6729
0.005 0.925 0.0563965 2.53001 -0.397585 -0.396453 6822
0.005 0.93 0.044324 2.40807 -0.409945 -0.408863 6920
0.005 0.935 0.0312982 2.27662 -0.421659 -0.420643 7022
0.005 0.94 0.0173703 2.13619 -0.432673 -0.431749 7198
0.005 0.945 0.00259532 1.98733 -0.442985 -0.442135 7350
0.005 0.95 -0.0129684 1.83062 -0.452545 -0.451761 7523
0.005 0.955 -0.0292594 1.66669 -0.461269 -0.460589 7701
0.005 0.96 -0.0462134 1.49619 -0.469172 -0.468583 7918
0.005 0.965 -0.0637636 1.31978 -0.476236 -0.475713 8078
0.005 0.97 -0.0818406 1.13816 -0.482355 -0.481951 8446
0.005 0.975 -0.100373 0.952045 -0.487595 -0.487271 8807
0.005 0.98 -0.119288 0.762176 -0.491872 -0.491652 9130
0.005 0.985 -0.138511 0.5693 -0.495189 -0.495078 9535
0.005 0.99 -0.157965 0.374176 -0.49758 -0.497535 8463
0.005 0.995 -0.177575 0.177576 -0.498947 -0.499013 6904
0.005 1 -0.197262 -0.0197255 -0.499328 -0.499507 5814
0.01 0 -0.393746 -0.0393746 -0.49785 -0.498029 7362
0.01 0.005 -0.413317 -0.236559 -0.497158 -0.497535 8463
0.01 0.01 -0.43281 -0.43281 -0.495502 -0.496057 7527
0.01 0.015 -0.452149 -0.627353 -0.492844 -0.4936 8694
0.01 0.02 -0.471258 -0.81942 -0.48921 -0.490174 9497
0.01 0.025 -0.490061 -1.00825 -0.484665 -0.485793 9140
0.01 0.03 -0.508484 -1.19311 -0.479169 -0.480473 8805
0.01 0.035 -0.526454 -1.37325 -0.472731 -0.474235 8445
0.01 0.04 -0.5439 -1.54798 -0.465444 -0.467105 8114
0.01 0.045 -0.560754 -1.71659 -0.457285 -0.459111 7914
0.01 0.05 -0.576948 -1.87844 -0.448289 -0.450283 7703
0.01 0.055 -0.59242 -2.03287 -0.43852 -0.440657 7548
0.01 0.06 -0.607107 -2.17927 -0.427981 -0.430271 7358
0.01 0.065 -0.620952 -2.31708 -0.416741 -0.419165 7161
0.01 0.07 -0.633901 -2.44574 -0.404836 -0.407385 7040
0.01 0.075 -0.645902 -2.56475 -0.392318 -0.394975 6922
0.01 0.08 -0.656908 -2.67363 -0.379213 -0.381985 6837
0.01 0.085 -0.666875 -2.77197 -0.365599 -0.368467 6697
0.01 0.09 -0.675764 -2.85936 -0.351522 -0.354474 6558
0.01 0.095 -0.683541 -2.93547 -0.337035 -0.34006 6520
0.01 0.1 -0.690173 -3 -0.322196 -0.325283 6402
0.01 0.105 -0.695636 -3.05269 -0.307066 -0.310201 6278
0.01 0.11 -0.699907 -3.09332 -0.2917 -0.294874 6285
0.01 0.115 -0.70297 -3.12176 -0.276162 -0.279362 6121
0.01 0.12 -0.704813 -3.13787 -0.260513 -0.263726 6134
0.01 0.125 -0.705428 -3.14159 -0.244814 -0.248029 6047
0.01 0.13 -0.704813 -3.13292 -0.229127 -0.232331 5908
0.01 0.135 -0.70297 -3.11189 -0.213517 -0.216695 5887
0.01 0.14 -0.699907 -3.07857 -0.198042 -0.201183 5826
0.01 0.145 -0.695636 -3.0331 -0.182759 -0.185856 5777
0.01 0.15 -0.690173 -2.97566 -0.167737 -0.170774 5745
0.01 0.155 -0.683541 -2.90648 -0.153037 -0.155998 5662
0.01 0.16 -0.675764 -2.82583 -0.138707 -0.141584 5629
0.01 0.165 -0.666875 -2.73403 -0.124803 -0.12759 5582
0.01 0.17 -0.656908 -2.63144 -0.111382 -0.114072 5579
0.01 0.175 -0.645902 -2.51846 -0.0985072 -0.101082 5518
0.01 0.18 -0.633901 -2.39554 -0.0862289 -0.0886727 5431
0.01 0.185 -0.620952 -2.26317 -0.0745806 -0.0768919 5419
0.01 0.19 -0.607107 -2.12187 -0.0636312 -0.0657865 5397
0.01 0.195 -0.59242 -1.97219 -0.053391 -0.0554004 5330
0.01 0.2 -0.576948 -1.81473 -0.0439172 -0.0457744 5323
0.01 0.205 -0.560754 -1.6501 -0.0352614 -0.0369467 5306
0.01 0.21 -0.5439 -1.47897 -0.0274315 -0.028952 5209
0.01 0.215 -0.526454 -1.302 -0.0204778 -0.0218219 5185
0.01 0.22 -0.508484 -1.11989 -0.0144397 -0.0155846 5147
0.01 0.225 -0.490061 -0.933358 -0.00930165 -0.0102646 5106
0.01 0.23 -0.471258 -0.743145 -0.00510191 -0.00588289 5089
0.01 0.235 -0.452149 -0.549999 -0.00187771 -0.00245687 5082
0.01 0.24 -0.43281 -0.354682 0.000397842 -1.67915e-09 5046
0.01 0.245 -0.413317 -0.157965 0.00166492 0.00147801 5021
0.01 0.25 -0.393746 0.0393744 0.00197665 0.00197132 5006
0.01 0.255 -0.374175 0.236559 0.00129281 0.00147801 5007
0.01 0.26 -0.354682 0.43281 -0.000402827 1.67915e-09 4958
0.01 0.265 -0.335343 0.627353 -0.00305252 -0.00245686 4955
0.01 0.27 -0.316234 0.81942 -0.00664939 -0.00588288 4925
0.01 0.275 -0.297431 1.00825 -0.0112354 -0.0102645 4879
0.01 0.28 -0.279008 1.19311 -0.0167353 -0.0155845 4815
0.01 0.285 -0.261038 1.37325 -0.0231449 -0.0218219 4859
0.01 0.29 -0.243592 1.54798 -0.0304484 -0.028952 4845
0.01 0.295 -0.226738 1.71659 -0.0386204 -0.0369467 4829
0.01 0.3 -0.210544 1.87844 -0.0476017 -0.0457744 4778
0.01 0.305 -0.195072 2.03287 -0.0573733 -0.0554004 4795
0.01 0.31 -0.180385 2.17927 -0.0679156 -0.0657865 4795
0.01 0.315 -0.16654 2.31708 -0.0791497 -0.0768919 4733
0.01 0.32 -0.153591 2.44574 -0.0910543 -0.0886727 4727
0.01 0.325 -0.14159 2.56475 -0.103579 -0.101082 4665
0.01 0.33 -0.130584 2.67363 -0.116683 -0.114072 4686
0.01 0.335 -0.120617 2.77197 -0.130295 -0.12759 4692
0.01 0.34 -0.111728 2.85936 -0.144374 -0.141584 4664
0.01 0.345 -0.103951 2.93547 -0.15886 -0.155998 4681
0.01 0.35 -0.0973187 3 -0.173695 -0.170774 4633
0.01 0.355 -0.091856 3.05269 -0.188829 -0.185856 4582
0.01 0.36 -0.0875847 3.09332 -0.204194 -0.201183 4610
0.01 0.365 -0.0845216 3.12176 -0.219731 -0.216695 4616
0.01 0.37 -0.082679 3.13787 -0.235382 -0.232331 4624
0.01 0.375 -0.0820639 3.14159 -0.251079 -0.248029 4612
0.01 0.38 -0.082679 3.13292 -0.266766 -0.263726 4549
0.01 0.385 -0.0845216 3.11189 -0.282378 -0.279362 4546
0.01 0.39 -0.0875847 3.07857 -0.297854 -0.294874 4506
0.01 0.395 -0.091856 3.0331 -0.313132 -0.310201 4517
0.01 0.4 -0.0973187 2.97566 -0.328156 -0.325283 4521
0.01 0.405 -0.103951 2.90648 -0.34286 -0.34006 4552
0.01 0.41 -0.111728 2.82583 -0.357193 -0.354473 4559
0.01 0.415 -0.120617 2.73403 -0.371089 -0.368467 4534
0.01 0.42 -0.130584 2.63144 -0.384507 -0.381985 4519
0.01 0.425 -0.14159 2.51846 -0.397382 -0.394975 4529
0.01 0.43 -0.153591 2.39554 -0.409661 -0.407385 4517
0.01 0.435 -0.16654 2.26317 -0.421312 -0.419165 4504
0.01 0.44 -0.180385 2.12187 -0.432278 -0.430271 4467
0.01 0.445 -0.195072 1.97219 -0.442505 -0.440657 4477
0.01 0.45 -0.210544 1.81473 -0.451971 -0.450283 4486
0.01 0.455 -0.226738 1.6501 -0.460632 -0.459111 4457
0.01 0.46 -0.243592 1.47897 -0.468459 -0.467105 4441
0.01 0.465 -0.261038 1.302 -0.475406 -0.474235 4431
0.01 0.47 -0.279008 1.11989 -0.481474 -0.480473 4452
0.01 0.475 -0.297431 0.933358 -0.486609 -0.485793 4457
0.01 0.48 -0.316234 0.743145 -0.490785 -0.490174 4492
0.01 0.485 -0.335343 0.549999 -0.494018 -0.4936 4476
0.01 0.49 -0.354682 0.354682 -0.496279 -0.496057 4411
0.01 0.495 -0.374175 0.157966 -0.49756 -0.497535 4430
0.01 0.5 -0.393746 -0.0393743 -0.497856 -0.498029 4458
0.01 0.505 -0.413317 -0.236559 -0.497176 -0.497535 4430
0.01 0.51 -0.43281 -0.43281 -0.495504 -0.496057 4411
0.01 0.515 -0.452149 -0.627353 -0.492847 -0.4936 4474
0.01 0.52 -0.471258 -0.81942 -0.48924 -0.490174 4494
0.01 0.525 -0.490061 -1.00825 -0.484665 -0.485793 4457
0.01 0.53 -0.508484 -1.19311 -0.479168 -0.480473 4452
0.01 0.535 -0.526454 -1.37325 -0.472753 -0.474235 4431
0.01 0.54 -0.5439 -1.54798 -0.465441 -0.467105 4441
0.01 0.545 -0.560754 -1.71659 -0.457275 -0.459111 4457
0.01 0.55 -0.576948 -1.87844 -0.448291 -0.450283 4484
0.01 0.555 -0.59242 -2.03286 -0.43852 -0.440657 4479
0.01 0.56 -0.607107 -2.17927 -0.427982 -0.430271 4467
0.01 0.565 -0.620952 -2.31708 -0.416741 -0.419165 4504
0.01 0.57 -0.633901 -2.44574 -0.404835 -0.407385 4517
0.01 0.575 -0.645902 -2.56475 -0.392315 -0.394975 4529
0.01 0.58 -0.656908 -2.67363 -0.379219 -0.381985 4519
0.01 0.585 -0.666875 -2.77197 -0.365599 -0.368467 4532
0.01 0.59 -0.675764 -2.85936 -0.351522 -0.354474 4561
0.01 0.595 -0.683541 -2.93547 -0.337036 -0.34006 4552
0.01 0.6 -0.690173 -3 -0.322197 -0.325283 4521
0.01 0.605 -0.695636 -3.05269 -0.307066 -0.310201 4517
0.01 0.61 -0.699907 -3.09332 -0.291701 -0.294874 4506
0.01 0.615 -0.70297 -3.12176 -0.276163 -0.279362 4546
0.01 0.62 -0.704813 -3.13787 -0.260514 -0.263726 4547
0.01 0.625 -0.705428 -3.14159 -0.244815 -0.248029 4614
0.01 0.63 -0.704813 -3.13292 -0.229128 -0.232331 4624
0.01 0.635 -0.70297 -3.11189 -0.213517 -0.216695 4616
0.01 0.64 -0.699907 -3.07857 -0.198042 -0.201183 4610
0.01 0.645 -0.695636 -3.0331 -0.182759 -0.185856 4582
0.01 0.65 -0.690173 -2.97566 -0.16774 -0.170774 4633
0.01 0.655 -0.683541 -2.90648 -0.153036 -0.155998 4679
0.01 0.66 -0.675764 -2.82583 -0.138707 -0.141584 4666
0.01 0.665 -0.666875 -2.73403 -0.124803 -0.12759 4692
0.01 0.67 -0.656908 -2.63144 -0.111385 -0.114072 4686
0.01 0.675 -0.645902 -2.51846 -0.0985097 -0.101082 4665
0.01 0.68 -0.633901 -2.39554 -0.0862291 -0.0886727 4727
0.01 0.685 -0.620952 -2.26317 -0.0745773 -0.0768919 4733
0.01 0.69 -0.607107 -2.12187 -0.063627 -0.0657865 4793
0.01 0.695 -0.59242 -1.97219 -0.0533904 -0.0554004 4797
0.01 0.7 -0.576948 -1.81473 -0.0439217 -0.0457744 4778
0.01 0.705 -0.560754 -1.6501 -0.0352683 -0.0369467 4829
0.01 0.71 -0.5439 -1.47897 -0.0274352 -0.028952 4845
0.01 0.715 -0.526454 -1.302 -0.0204792 -0.0218219 4859
0.01 0.72 -0.508484 -1.11989 -0.0144355 -0.0155846 4815
0.01 0.725 -0.490061 -0.933358 -0.00929894 -0.0102646 4877
0.01 0.73 -0.471258 -0.743145 -0.00509633 -0.00588289 4927
0.01 0.735 -0.452149 -0.549999 -0.00187646 -0.00245687 4955
0.01 0.74 -0.43281 -0.354682 0.000399303 -5.03744e-09 4958
0.01 0.745 -0.413317 -0.157966 0.0016662 0.001478 5007
0.01 0.75 -0.393746 0.0393741 0.00197182 0.00197132 5006
0.01 0.755 -0.374175 0.236559 0.00129 0.00147801 5021
0.01 0.76 -0.354682 0.43281 -0.000404198 5.03743e-09 5044
0.01 0.765 -0.335343 0.627352 -0.00305616 -0.00245686 5084
0.01 0.77 -0.316234 0.819419 -0.00664972 -0.00588288 5089