TITLE="Pressure integrated from Omni2D"
VARIABLES = "X","Y","Dudt","DvDt","Pcal","Preal","Count"
ZONE I=201, J=201
0 0 -0.314159 -0.314159 -0.49983 -0.5 1326
0 0.005 -0.314159 -0.511266 -0.497754 -0.499507 5814
0 0.01 -0.314159 -0.707285 -0.494704 -0.498029 7362
0 0.015 -0.314159 -0.901441 -0.490687 -0.495572 7008
0 0.02 -0.314159 -1.09296 -0.485709 -0.492146 6664
0 0.025 -0.314159 -1.2811 -0.479795 -0.487764 6417
0 0.03 -0.314159 -1.46509 -0.472924 -0.482444 6151
0 0.035 -0.314159 -1.64422 -0.465152 -0.476207 5970
0 0.04 -0.314159 -1.81776 -0.456486 -0.469077 5856
0 0.045 -0.314159 -1.98503 -0.446969 -0.461082 5681
0 0.05 -0.314159 -2.14536 -0.436649 -0.452254 5558
0 0.055 -0.314159 -2.29811 -0.425541 -0.442628 5415
0 0.06 -0.314159 -2.44267 -0.413698 -0.432242 5324
0 0.065 -0.314159 -2.57844 -0.401141 -0.421137 5208
0 0.07 -0.314159 -2.7049 -0.387939 -0.409356 5097
0 0.075 -0.314159 -2.82152 -0.374119 -0.396946 5058
0 0.08 -0.314159 -2.92783 -0.359745 -0.383957 4957
0 0.085 -0.314159 -3.02341 -0.344869 -0.370438 4856
0 0.09 -0.314159 -3.10785 -0.329539 -0.356445 4846
0 0.095 -0.314159 -3.18081 -0.313817 -0.342031 4751
0 0.1 -0.314159 -3.24199 -0.297761 -0.327254 4664
0 0.105 -0.314159 -3.29113 -0.281428 -0.312172 4690
0 0.11 -0.314159 -3.32801 -0.264881 -0.296845 4550
0 0.115 -0.314159 -3.35247 -0.24818 -0.281333 4561
0 0.12 -0.314159 -3.36441 -0.231388 -0.265698 4457
0 0.125 -0.314159 -3.36374 -0.214568 -0.25 4439
0 0.13 -0.314159 -3.35045 -0.197783 -0.234302 4400
0 0.135 -0.314159 -3.32458 -0.181095 -0.218667 4352
0 0.14 -0.314159 -3.2862 -0.164564 -0.203155 4309
0 0.145 -0.314159 -3.23544 -0.148259 -0.187828 4265
0 0.15 -0.314159 -3.17249 -0.132245 -0.172746 4242
0 0.155 -0.314159 -3.09756 -0.116575 -0.157969 4232
0 0.16 -0.314159 -3.01093 -0.101304 -0.143555 4119
0 0.165 -0.314159 -2.91292 -0.0864902 -0.129562 4159
0 0.17 -0.314159 -2.80388 -0.072205 -0.116043 4085
0 0.175 -0.314159 -2.68423 -0.0584762 -0.103054 4075
0 0.18 -0.314159 -2.5544 -0.045369 -0.090644 4084
0 0.185 -0.314159 -2.41489 -0.0329594 -0.0788632 4024
0 0.19 -0.314159 -2.26622 -0.0212456 -0.0677579 4028
0 0.195 -0.314159 -2.10894 -0.0103177 -0.0573717 3921
0 0.2 -0.314159 -1.94366 -0.000186551 -0.0477458 3905
0 0.205 -0.314159 -1.771 0.00909252 -0.038918 3910
0 0.21 -0.314159 -1.5916 0.0175127 -0.0309233 3867
0 0.215 -0.314159 -1.40616 0.0250082 -0.0237932 3846
0 0.22 -0.314159 -1.21537 0.0315524 -0.0175559 3863
0 0.225 -0.314159 -1.01995 0.0371604 -0.0122359 3827
0 0.23 -0.314159 -0.820657 0.0417426 -0.00785421 3851
0 0.235 -0.314159 -0.618241 0.0453453 -0.00442819 3772
0 0.24 -0.314159 -0.413472 0.047913 -0.00197133 3762
0 0.245 -0.314159 -0.20713 0.0494896 -0.000493319 3762
0 0.25 -0.314159 -1.76775e-07 0.0499874 -3.60822e-16 3726
0 0.255 -0.314159 0.20713 0.0494896 -0.000493317 3691
0 0.26 -0.314159 0.413472 0.0479142 -0.00197132 3708
0 0.265 -0.314159 0.618241 0.0453448 -0.00442818 3704
0 0.27 -0.314159 0.820657 0.0417388 -0.00785421 3658
0 0.275 -0.314159 1.01995 0.0371582 -0.0122359 3642
0 0.28 -0.314159 1.21536 0.031554 -0.0175559 3647
0 0.285 -0.314159 1.40616 0.0250097 -0.0237932 3627
0 0.29 -0.314159 1.5916 0.0175134 -0.0309233 3635
0 0.295 -0.314159 1.771 0.00909458 -0.038918 3608
0 0.3 -0.314159 1.94366 -0.000186551 -0.0477457 3598
0 0.305 -0.314159 2.10894 -0.0103183 -0.0573717 3577
0 0.31 -0.314159 2.26622 -0.0212459 -0.0677578 3599
0 0.315 -0.314159 2.41489 -0.0329607 -0.0788632 3526
0 0.32 -0.314159 2.5544 -0.0453703 -0.090644 3552
0 0.325 -0.314159 2.68423 -0.0584743 -0.103054 3546
0 0.33 -0.314159 2.80388 -0.0722025 -0.116043 3553
0 0.335 -0.314159 2.91292 -0.0864902 -0.129562 3537
0 0.34 -0.314159 3.01093 -0.101301 -0.143555 3520
0 0.345 -0.314159 3.09756 -0.116572 -0.157969 3496
0 0.35 -0.314159 3.17249 -0.132239 -0.172746 3465
0 0.355 -0.314159 3.23544 -0.148259 -0.187828 3430
0 0.36 -0.314159 3.2862 -0.164563 -0.203155 3484
0 0.365 -0.314159 3.32458 -0.181094 -0.218667 3470
0 0.37 -0.314159 3.35045 -0.197783 -0.234302 3456
0 0.375 -0.314159 3.36374 -0.214569 -0.25 3456
0 0.38 -0.314159 3.36441 -0.231388 -0.265698 3435
0 0.385 -0.314159 3.35247 -0.24818 -0.281333 3426
0 0.39 -0.314159 3.32801 -0.264881 -0.296845 3415
0 0.395 -0.314159 3.29113 -0.281429 -0.312172 3400
0 0.4 -0.314159 3.24199 -0.297762 -0.327254 3405
0 0.405 -0.314159 3.18081 -0.313818 -0.342031 3423
0 0.41 -0.314159 3.10785 -0.329541 -0.356445 3454
0 0.415 -0.314159 3.02341 -0.344868 -0.370438 3452
0 0.42 -0.314159 2.92783 -0.359745 -0.383957 3376
0 0.425 -0.314159 2.82152 -0.374119 -0.396946 3386
0 0.43 -0.314159 2.7049 -0.387938 -0.409356 3410
0 0.435 -0.314159 2.57844 -0.401148 -0.421137 3394
0 0.44 -0.314159 2.44267 -0.413699 -0.432242 3416
0 0.445 -0.314159 2.29811 -0.425545 -0.442628 3353
0 0.45 -0.314159 2.14537 -0.436654 -0.452254 3341
0 0.455 -0.314159 1.98503 -0.446984 -0.461082 3379
0 0.46 -0.314159 1.81776 -0.456487 -0.469077 3348
0 0.465 -0.314159 1.64422 -0.46515 -0.476207 3357
0 0.47 -0.314159 1.46509 -0.472914 -0.482444 3363
0 0.475 -0.314159 1.2811 -0.479788 -0.487764 3343
0 0.48 -0.314159 1.09296 -0.485721 -0.492146 3309
0 0.485 -0.314159 0.901441 -0.490711 -0.495572 3336
0 0.49 -0.314159 0.707286 -0.494735 -0.498029 3370
0 0.495 -0.314159 0.511267 -0.497781 -0.499507 3378
0 0.5 -0.314159 0.31416 -0.499834 -0.5 3376
0 0.505 -0.314159 0.116742 -0.500918 -0.499507 3378
0 0.51 -0.314159 -0.0802063 -0.501016 -0.498029 3370
0 0.515 -0.314159 -0.27591 -0.500123 -0.495572 3334
0 0.52 -0.314159 -0.4696 -0.498248 -0.492146 3311
0 0.525 -0.314159 -0.660514 -0.495426 -0.487764 3343
0 0.53 -0.314159 -0.847902 -0.49165 -0.482444 3363
0 0.535 -0.314159 -1.03103 -0.486954 -0.476207 3357
0 0.54 -0.314159 -1.20918 -0.481366 -0.469077 3348
0 0.545 -0.314159 -1.38166 -0.474893 -0.461082 3379
0 0.55 -0.314159 -1.5478 -0.467566 -0.452254 3339
0 0.555 -0.314159 -1.70694 -0.459417 -0.442628 3355
0 0.56 -0.314159 -1.85847 -0.450505 -0.432242 3415
0 0.565 -0.314159 -2.0018 -0.440859 -0.421137 3394
0 0.57 -0.314159 -2.13638 -0.430513 -0.409356 3410
0 0.575 -0.314159 -2.26168 -0.41952 -0.396946 3386
0 0.58 -0.314159 -2.37723 -0.407923 -0.383957 3374
0 0.585 -0.314159 -2.48259 -0.395771 -0.370438 3450
0 0.59 -0.314159 -2.57734 -0.38312 -0.356445 3454
0 0.595 -0.314159 -2.66114 -0.370025 -0.342031 3423
0 0.6 -0.314159 -2.73367 -0.356537 -0.327254 3405
0 0.605 -0.314159 -2.79466 -0.342715 -0.312173 3400
0 0.61 -0.314159 -2.84388 -0.328617 -0.296845 3415
0 0.615 -0.314159 -2.88117 -0.314305 -0.281333 3426
0 0.62 -0.314159 -2.90638 -0.299837 -0.265698 3434
0 0.625 -0.314159 -2.91945 -0.285272 -0.25 3458
0 0.63 -0.314159 -2.92034 -0.270672 -0.234302 3456
0 0.635 -0.314159 -2.90906 -0.256099 -0.218667 3470
0 0.64 -0.314159 -2.88569 -0.241612 -0.203155 3484
0 0.645 -0.314159 -2.85034 -0.22727 -0.187828 3430
0 0.65 -0.314159 -2.80317 -0.213138 -0.172746 3465
0 0.655 -0.314159 -2.7444 -0.199269 -0.157969 3494
0 0.66 -0.314159 -2.67426 -0.185724 -0.143555 3520
0 0.665 -0.314159 -2.59308 -0.172552 -0.129562 3537
0 0.67 -0.314159 -2.50119 -0.159821 -0.116043 3553
0 0.675 -0.314159 -2.39898 -0.147574 -0.103054 3546
0 0.68 -0.314159 -2.28688 -0.135859 -0.090644 3552
0 0.685 -0.314159 -2.16535 -0.124725 -0.0788632 3526
0 0.69 -0.314159 -2.03492 -0.114222 -0.0677579 3597
0 0.695 -0.314159 -1.89611 -0.104394 -0.0573717 3579
0 0.7 -0.314159 -1.7495 -0.0952798 -0.0477458 3598
0 0.705 -0.314159 -1.5957 -0.0869176 -0.038918 3608
0 0.71 -0.314159 -1.43535 -0.0793452 -0.0309233 3635
0 0.715 -0.314159 -1.26909 -0.0725756 -0.0237933 3628
0 0.72 -0.314159 -1.09763 -0.066657 -0.0175559 3647
0 0.725 -0.314159 -0.921661 -0.0616218 -0.0122359 3640
0 0.73 -0.314159 -0.741908 -0.0574501 -0.00785422 3660
0 0.735 -0.314159 -0.559111 -0.0542026 -0.00442819 3704
0 0.74 -0.314159 -0.37402 -0.0518768 -0.00197133 3708
0 0.745 -0.314159 -0.187395 -0.0504736 -0.00049332 3691
0 0.75 -0.314159 -4.79818e-07 -0.0499933 -3.21965e-15 3726
0 0.755 -0.314159 0.187394 -0.0504734 -0.000493315 3762
0 0.76 -0.314159 0.374019 -0.051877 -0.00197132 3760
0 0.765 -0.314159 0.55911 -0.0542031 -0.00442818 3775
0 0.77 -0.314159 0.741907 -0.0574495 -0.0078542 3851
0 0.775 -0.314159 0.92166 -0.0616212 -0.0122359 3827
0 0.78 -0.314159 1.09763 -0.0666569 -0.0175559 3863
0 0.785 -0.314159 1.26909 -0.0725756 -0.0237932 3846
0 0.79 -0.314159 1.43535 -0.079345 -0.0309233 3867
0 0.795 -0.314159 1.5957 -0.0869175 -0.038918 3908
0 0.8 -0.314159 1.7495 -0.0952797 -0.0477457 3907
0 0.805 -0.314159 1.89611 -0.104404 -0.0573717 3921
0 0.81 -0.314159 2.03492 -0.114232 -0.0677578 4028
0 0.815 -0.314159 2.16535 -0.12473 -0.0788632 4024
0 0.82 -0.314159 2.28688 -0.135857 -0.090644 4084
0 0.825 -0.314159 2.39898 -0.147564 -0.103054 4075
0 0.83 -0.314159 2.50119 -0.159821 -0.116043 4083
0 0.835 -0.314159 2.59308 -0.172552 -0.129562 4161
0 0.84 -0.314159 2.67426 -0.185725 -0.143555 4119
0 0.845 -0.314159 2.7444 -0.199272 -0.157969 4232
0 0.85 -0.314159 2.80317 -0.213138 -0.172746 4242
0 0.855 -0.314159 2.85034 -0.22727 -0.187827 4265
0 0.86 -0.314159 2.88569 -0.241611 -0.203155 4309
0 0.865 -0.314159 2.90906 -0.256099 -0.218667 4350
0 0.87 -0.314159 2.92034 -0.270672 -0.234302 4402
0 0.875 -0.314159 2.91945 -0.285271 -0.25 4439
0 0.88 -0.314159 2.90638 -0.299837 -0.265698 4457
0 0.885 -0.314159 2.88117 -0.314305 -0.281333 4561
0 0.89 -0.314159 2.84388 -0.328617 -0.296845 4550
0 0.895 -0.314159 2.79466 -0.342715 -0.312172 4690
0 0.9 -0.314159 2.73367 -0.356537 -0.327254 4662
0 0.905 -0.314159 2.66114 -0.370025 -0.342031 4753
0 0.91 -0.314159 2.57734 -0.383119 -0.356445 4846
0 0.915 -0.314159 2.48259 -0.395762 -0.370438 4856
0 0.92 -0.314159 2.37723 -0.407911 -0.383957 4957
0 0.925 -0.314159 2.26168 -0.419508 -0.396946 5058
0 0.93 -0.314159 2.13638 -0.430501 -0.409356 5097
0 0.935 -0.314159 2.0018 -0.440858 -0.421137 5206
0 0.94 -0.314159 1.85847 -0.450504 -0.432242 5326
0 0.945 -0.314159 1.70694 -0.459416 -0.442628 5415
0 0.95 -0.314159 1.5478 -0.467548 -0.452254 5557
0 0.955 -0.314159 1.38166 -0.474882 -0.461082 5681
0 0.96 -0.314159 1.20919 -0.48137 -0.469077 5857
0 0.965 -0.314159 1.03103 -0.486961 -0.476207 5970
0 0.97 -0.314159 0.847903 -0.491647 -0.482444 6149
0 0.975 -0.314159 0.660515 -0.495426 -0.487764 6419
0 0.98 -0.314159 0.469601 -0.498239 -0.492146 6664
0 0.985 -0.314159 0.275911 -0.5001 -0.495572 7008
0 0.99 -0.314159 0.0802073 -0.501015 -0.498029 7362
0 0.995 -0.314159 -0.116741 -0.500916 -0.499507 5814
0 1 -0.314159 -0.314159 -0.499833 -0.5 1326
0.005 0 -0.511266 -0.314159 -0.497751 -0.499507 5814
0.005 0.005 -0.511266 -0.511266 -0.495692 -0.499013 6905
0.005 0.01 -0.511266 -0.707285 -0.492633 -0.497535 8463
0.005 0.015 -0.511266 -0.901441 -0.488609 -0.495079 9535
0.005 0.02 -0.511266 -1.09296 -0.483669 -0.491652 9130
0.005 0.025 -0.511266 -1.2811 -0.477722 -0.487271 8805
0.005 0.03 -0.511266 -1.46509 -0.470867 -0.481951 8448
0.005 0.035 -0.511266 -1.64422 -0.463081 -0.475713 8078
0.005 0.04 -0.511266 -1.81776 -0.454418 -0.468583 7918
0.005 0.045 -0.511266 -1.98503 -0.444912 -0.460589 7700
0.005 0.05 -0.511266 -2.14536 -0.434588 -0.451761 7523
0.005 0.055 -0.511266 -2.29811 -0.423473 -0.442135 7350
0.005 0.06 -0.511266 -2.44267 -0.411626 -0.431749 7196
0.005 0.065 -0.511266 -2.57844 -0.399077 -0.420643 7024
0.005 0.07 -0.511266 -2.7049 -0.385868 -0.408863 6920
0.005 0.075 -0.511266 -2.82152 -0.372059 -0.396453 6822
0.005 0.08 -0.511266 -2.92783 -0.35768 -0.383463 6729
0.005 0.085 -0.511266 -3.02341 -0.342805 -0.369945 6540
0.005 0.09 -0.511266 -3.10785 -0.327478 -0.355952 6457
0.005 0.095 -0.511266 -3.18081 -0.311755 -0.341538 6446
0.005 0.1 -0.511266 -3.24199 -0.295697 -0.326761 6297
0.005 0.105 -0.511266 -3.29113 -0.279365 -0.311679 6241
0.005 0.11 -0.511266 -3.32801 -0.262817 -0.296352 6148
0.005 0.115 -0.511266 -3.35247 -0.246115 -0.28084 6055
0.005 0.12 -0.511266 -3.36441 -0.229323 -0.265204 6038
0.005 0.125 -0.511266 -3.36374 -0.212502 -0.249507 5912
0.005 0.13 -0.511266 -3.35045 -0.195716 -0.233809 5892
0.005 0.135 -0.511266 -3.32458 -0.179028 -0.218173 5821
0.005 0.14 -0.511266 -3.2862 -0.162502 -0.202661 5752
0.005 0.145 -0.511266 -3.23544 -0.146195 -0.187334 5709
0.005 0.15 -0.511266 -3.17249 -0.130185 -0.172252 5680
0.005 0.155 -0.511266 -3.09756 -0.114506 -0.157476 5620
0.005 0.16 -0.511266 -3.01093 -0.0992425 -0.143062 5549
0.005 0.165 -0.511266 -2.91292 -0.0844189 -0.129068 5518
0.005 0.17 -0.511266 -2.80388 -0.070134 -0.11555 5473
0.005 0.175 -0.511266 -2.68423 -0.0564144 -0.10256 5403
0.005 0.18 -0.511266 -2.5544 -0.0433141 -0.0901507 5383
0.005 0.185 -0.511266 -2.41489 -0.0308965 -0.0783699 5325
0.005 0.19 -0.511266 -2.26622 -0.0191925 -0.0672645 5295
0.005 0.195 -0.511266 -2.10894 -0.00824507 -0.0568784 5278
0.005 0.2 -0.511266 -1.94366 0.0018859 -0.0472524 5229
0.005 0.205 -0.511266 -1.771 0.0111644 -0.0384247 5206
0.005 0.21 -0.511266 -1.5916 0.0195809 -0.03043 5156
0.005 0.215 -0.511266 -1.40616 0.0270606 -0.0232999 5086
0.005 0.22 -0.511266 -1.21537 0.0336246 -0.0170626 5064
0.005 0.225 -0.511266 -1.01995 0.0392213 -0.0117426 5062
0.005 0.23 -0.511266 -0.820657 0.0438017 -0.00736089 5039
0.005 0.235 -0.511266 -0.618241 0.0474154 -0.00393487 5031
0.005 0.24 -0.511266 -0.413472 0.0499843 -0.00147801 5025
0.005 0.245 -0.511266 -0.20713 0.0515514 -8.41233e-10 4975
0.005 0.25 -0.511266 -1.76775e-07 0.052059 0.000493318 4906
0.005 0.255 -0.511266 0.20713 0.0515516 8.41232e-10 4923
0.005 0.26 -0.511266 0.413472 0.0499871 -0.00147801 4903
0.005 0.265 -0.511266 0.618241 0.0474151 -0.00393487 4863
0.005 0.27 -0.511266 0.820657 0.0438011 -0.00736089 4821
0.005 0.275 -0.511266 1.01995 0.0392193 -0.0117425 4851
0.005 0.28 -0.511266 1.21536 0.0336254 -0.0170626 4814
0.005 0.285 -0.511266 1.40616 0.0270645 -0.0232999 4776
0.005 0.29 -0.511266 1.5916 0.019584 -0.03043 4738
0.005 0.295 -0.511266 1.771 0.0111655 -0.0384247 4753
0.005 0.3 -0.511266 1.94366 0.00188444 -0.0472524 4726
0.005 0.305 -0.511266 2.10894 -0.00824727 -0.0568784 4727
0.005 0.31 -0.511266 2.26622 -0.0191887 -0.0672645 4670
0.005 0.315 -0.511266 2.41489 -0.0308912 -0.0783699 4658
0.005 0.32 -0.511266 2.5544 -0.0433185 -0.0901507 4712
0.005 0.325 -0.511266 2.68423 -0.0564039 -0.10256 4672
0.005 0.33 -0.511266 2.80388 -0.0701328 -0.11555 4625
0.005 0.335 -0.511266 2.91292 -0.0844192 -0.129068 4627
0.005 0.34 -0.511266 3.01093 -0.0992408 -0.143062 4593
0.005 0.345 -0.511266 3.09756 -0.114506 -0.157476 4608
0.005 0.35 -0.511266 3.17249 -0.130184 -0.172252 4607
0.005 0.355 -0.511266 3.23544 -0.146198 -0.187334 4601
0.005 0.36 -0.511266 3.2862 -0.162505 -0.202661 4592
0.005 0.365 -0.511266 3.32458 -0.179027 -0.218173 4585
0.005 0.37 -0.511266 3.35045 -0.195716 -0.233809 4539
0.005 0.375 -0.511266 3.36374 -0.212502 -0.249507 4497
0.005 0.38 -0.511266 3.36441 -0.229325 -0.265204 4519
0.005 0.385 -0.511266 3.35247 -0.246115 -0.28084 4525
0.005 0.39 -0.511266 3.32801 -0.262817 -0.296352 4538
0.005 0.395 -0.511266 3.29113 -0.279365 -0.311679 4537
0.005 0.4 -0.511266 3.24199 -0.295698 -0.326761 4503
0.005 0.405 -0.511266 3.18081 -0.311755 -0.341538 4508
0.005 0.41 -0.511266 3.10785 -0.327476 -0.355951 4459
0.005 0.415 -0.511266 3.02341 -0.342806 -0.369945 4453
0.005 0.42 -0.511266 2.92783 -0.357681 -0.383463 4436
0.005 0.425 -0.511266 2.82152 -0.372054 -0.396453 4452
0.005 0.43 -0.511266 2.7049 -0.38587 -0.408863 4449
0.005 0.435 -0.511266 2.57844 -0.399083 -0.420643 4437
0.005 0.44 -0.511266 2.44267 -0.411631 -0.431749 4425
0.005 0.445 -0.511266 2.29811 -0.423483 -0.442135 4437
0.005 0.45 -0.511266 2.14537 -0.43459 -0.451761 4444
0.005 0.455 -0.511266 1.98503 -0.444922 -0.460589 4434
0.005 0.46 -0.511266 1.81776 -0.454422 -0.468583 4434
0.005 0.465 -0.511266 1.64422 -0.463079 -0.475713 4452
0.005 0.47 -0.511266 1.46509 -0.47085 -0.481951 4481
0.005 0.475 -0.511266 1.2811 -0.477724 -0.487271 4451
0.005 0.48 -0.511266 1.09296 -0.48365 -0.491652 4430
0.005 0.485 -0.511266 0.901441 -0.488648 -0.495079 4457
0.005 0.49 -0.511266 0.707286 -0.492671 -0.497535 4433
0.005 0.495 -0.511266 0.511267 -0.495719 -0.499013 4439
0.005 0.5 -0.511266 0.31416 -0.497772 -0.499507 4418
0.005 0.505 -0.511266 0.116742 -0.498847 -0.499013 4439
0.005 0.51 -0.511266 -0.0802063 -0.498952 -0.497535 4433
0.005 0.515 -0.511266 -0.27591 -0.498052 -0.495079 4455
0.005 0.52 -0.511266 -0.4696 -0.496182 -0.491652 4432
0.005 0.525 -0.511266 -0.660514 -0.493356 -0.487271 4451
0.005 0.53 -0.511266 -0.847902 -0.489586 -0.481951 4481
0.005 0.535 -0.511266 -1.03103 -0.484892 -0.475713 4452
0.005 0.54 -0.511266 -1.20918 -0.479301 -0.468583 4434
0.005 0.545 -0.511266 -1.38166 -0.472826 -0.460589 4434
0.005 0.55 -0.511266 -1.5478 -0.465502 -0.451761 4442
0.005 0.555 -0.511266 -1.70694 -0.457352 -0.442135 4440
0.005 0.56 -0.511266 -1.85847 -0.448438 -0.431749 4425
0.005 0.565 -0.511266 -2.0018 -0.438789 -0.420643 4437
0.005 0.57 -0.511266 -2.13638 -0.428451 -0.408863 4449
0.005 0.575 -0.511266 -2.26168 -0.417459 -0.396453 4454
0.005 0.58 -0.511266 -2.37723 -0.405858 -0.383463 4436
0.005 0.585 -0.511266 -2.48259 -0.393708 -0.369945 4451
0.005 0.59 -0.511266 -2.57734 -0.381052 -0.355952 4461
0.005 0.595 -0.511266 -2.66114 -0.367957 -0.341538 4508
0.005 0.6 -0.511266 -2.73367 -0.35447 -0.326761 4503
0.005 0.605 -0.511266 -2.79466 -0.340651 -0.311679 4537
0.005 0.61 -0.511266 -2.84388 -0.326555 -0.296352 4538
0.005 0.615 -0.511266 -2.88117 -0.312243 -0.28084 4525
0.005 0.62 -0.511266 -2.90638 -0.297772 -0.265204 4517
0.005 0.625 -0.511266 -2.91945 -0.283208 -0.249507 4498
0.005 0.63 -0.511266 -2.92034 -0.268609 -0.233809 4539
0.005 0.635 -0.511266 -2.90906 -0.254034 -0.218173 4585
0.005 0.64 -0.511266 -2.88569 -0.239549 -0.202661 4592
0.005 0.645 -0.511266 -2.85034 -0.225208 -0.187334 4601
0.005 0.65 -0.511266 -2.80317 -0.211074 -0.172252 4607
0.005 0.655 -0.511266 -2.7444 -0.197207 -0.157476 4606
0.005 0.66 -0.511266 -2.67426 -0.183659 -0.143062 4595
0.005 0.665 -0.511266 -2.59308 -0.170491 -0.129068 4627
0.005 0.67 -0.511266 -2.50119 -0.157754 -0.11555 4625
0.005 0.675 -0.511266 -2.39898 -0.145509 -0.10256 4672
0.005 0.68 -0.511266 -2.28688 -0.133792 -0.0901507 4712
0.005 0.685 -0.511266 -2.16535 -0.122665 -0.0783699 4658
0.005 0.69 -0.511266 -2.03492 -0.112166 -0.0672645 4668
0.005 0.695 -0.511266 -1.89611 -0.102338 -0.0568784 4729
0.005 0.7 -0.511266 -1.7495 -0.093211 -0.0472525 4726
0.005 0.705 -0.511266 -1.5957 -0.0848474 -0.0384247 4753
0.005 0.71 -0.511266 -1.43535 -0.0772752 -0.03043 4737
0.005 0.715 -0.511266 -1.26909 -0.0705083 -0.0232999 4776
0.005 0.72 -0.511266 -1.09763 -0.0645897 -0.0170626 4814
0.005 0.725 -0.511266 -0.921661 -0.0595584 -0.0117426 4849
0.005 0.73 -0.511266 -0.741908 -0.0553844 -0.0073609 4823
0.005 0.735 -0.511266 -0.559111 -0.0521355 -0.00393488 4863
0.005 0.74 -0.511266 -0.37402 -0.049813 -0.00147801 4903
0.005 0.745 -0.511266 -0.187395 -0.0484046 -2.5237e-09 4923
0.005 0.75 -0.511266 -4.79818e-07 -0.0479253 0.000493318 4906
0.005 0.755 -0.511266 0.187394 -0.0484043 2.5237e-09 4975
0.005 0.76 -0.511266 0.374019 -0.0498104 -0.001478 5023
0.005 0.765 -0.511266 0.55911 -0.0521378 -0.00393486 5033
0.005 0.77 -0.511266 0.741907 -0.0553873 -0.00736088 5038
0.005 0.775 -0.511266 0.92166 -0.0595562 -0.0117425 5062
0.005 0.78 -0.511266 1.09763 -0.0645921 -0.0170625 5064
0.005 0.785 -0.511266 1.26909 -0.0705073 -0.0232999 5086
0.005 0.79 -0.511266 1.43535 -0.0772755 -0.03043 5156
0.005 0.795 -0.511266 1.5957 -0.0848473 -0.0384247 5204
0.005 0.8 -0.511266 1.7495 -0.0932105 -0.0472524 5231
0.005 0.805 -0.511266 1.89611 -0.10234 -0.0568783 5278
0.005 0.81 -0.511266 2.03492 -0.112167 -0.0672645 5295
0.005 0.815 -0.511266 2.16535 -0.122668 -0.0783699 5325
0.005 0.82 -0.511266 2.28688 -0.133792 -0.0901507 5382
0.005 0.825 -0.511266 2.39898 -0.145508 -0.10256 5403
0.005 0.83 -0.511266 2.50119 -0.157758 -0.11555 5471
0.005 0.835 -0.511266 2.59308 -0.17049 -0.129068 5520
0.005 0.84 -0.511266 2.67426 -0.183659 -0.143062 5549
0.005 0.845 -0.511266 2.7444 -0.197207 -0.157476 5620
0.005 0.85 -0.511266 2.80317 -0.211071 -0.172252 5680
0.005 0.855 -0.511266 2.85034 -0.225206 -0.187334 5709
0.005 0.86 -0.511266 2.88569 -0.239549 -0.202661 5752
0.005 0.865 -0.511266 2.90906 -0.254034 -0.218173 5819
0.005 0.87 -0.511266 2.92034 -0.268608 -0.233809 5894
0.005 0.875 -0.511266 2.91945 -0.283208 -0.249507 5912
0.005 0.88 -0.511266 2.90638 -0.297772 -0.265204 6038
0.005 0.885 -0.511266 2.88117 -0.312242 -0.28084 6055
0.005 0.89 -0.511266 2.84388 -0.326552 -0.296352 6148
0.005 0.895 -0.511266 2.79466 -0.340647 -0.311679 6241
0.005 0.9 -0.511266 2.73367 -0.354468 -0.326761 6296
0.005 0.905 -0.511266 2.66114 -0.36796 -0.341538 6448
0.005 0.91 -0.511266 2.57734 -0.38105 -0.355951 6457
0.005 0.915 -0.511266 2.48259 -0.393696 -0.369945 6540
0.005 0.92 -0.511266 2.37723 -0.405842 -0.383463 6729
0.005 0.925 -0.511266 2.26168 -0.417439 -0.396453 6822
0.005 0.93 -0.511266 2.13638 -0.428447 -0.408863 6920
0.005 0.935 -0.511266 2.0018 -0.438787 -0.420643 7022
0.005 0.94 -0.511266 1.85847 -0.448434 -0.431749 7198
0.005 0.945 -0.511266 1.70694 -0.457347 -0.442135 7350
0.005 0.95 -0.511266 1.5478 -0.465503 -0.451761 7523
0.005 0.955 -0.511266 1.38166 -0.472828 -0.460589 7701
0.005 0.96 -0.511266 1.20919 -0.479304 -0.468583 7918
0.005 0.965 -0.511266 1.03103 -0.484903 -0.475713 8078
0.005 0.97 -0.511266 0.847903 -0.489577 -0.481951 8446
0.005 0.975 -0.511266 0.660515 -0.493354 -0.487271 8807
0.005 0.98 -0.511266 0.469601 -0.496172 -0.491652 9130
0.005 0.985 -0.511266 0.275911 -0.498063 -0.495078 9535
0.005 0.99 -0.511266 0.0802073 -0.498955 -0.497535 8463
0.005 0.995 -0.511266 -0.116741 -0.498845 -0.499013 6904
0.005 1 -0.511266 -0.314159 -0.497758 -0.499507 5814
0.01 0 -0.707285 -0.314159 -0.494703 -0.498029 7362
0.01 0.005 -0.707285 -0.511266 -0.492631 -0.497535 8463
0.01 0.01 -0.707285 -0.707285 -0.48959 -0.496057 7527
0.01 0.015 -0.707285 -0.901441 -0.485573 -0.4936 8694
0.01 0.02 -0.707285 -1.09296 -0.480623 -0.490174 9497
0.01 0.025 -0.707285 -1.2811 -0.47467 -0.485793 9140
0.01 0.03 -0.707285 -1.46509 -0.467816 -0.480473 8805
0.01 0.035 -0.707285 -1.64422 -0.460031 -0.474235 8445
0.01 0.04 -0.707285 -1.81776 -0.451371 -0.467105 8114
0.01 0.045 -0.707285 -1.98503 -0.441868 -0.459111 7914
0.01 0.05 -0.707285 -2.14536 -0.431544 -0.450283 7703
0.01 0.055 -0.707285 -2.29811 -0.42043 -0.440657 7548
0.01 0.06 -0.707285 -2.44267 -0.408576 -0.430271 7358
0.01 0.065 -0.707285 -2.57844 -0.396039 -0.419165 7161
0.01 0.07 -0.707285 -2.7049 -0.38282 -0.407385 7040
0.01 0.075 -0.707285 -2.82152 -0.369013 -0.394975 6922
0.01 0.08 -0.707285 -2.92783 -0.354638 -0.381985 6837
0.01 0.085 -0.707285 -3.02341 -0.339757 -0.368467 6697
0.01 0.09 -0.707285 -3.10785 -0.324431 -0.354474 6558
0.01 0.095 -0.707285 -3.18081 -0.308707 -0.34006 6520
0.01 0.1 -0.707285 -3.24199 -0.292651 -0.325283 6402
0.01 0.105 -0.707285 -3.29113 -0.276318 -0.310201 6278
0.01 0.11 -0.707285 -3.32801 -0.25977 -0.294874 6285
0.01 0.115 -0.707285 -3.35247 -0.24307 -0.279362 6121
0.01 0.12 -0.707285 -3.36441 -0.226278 -0.263726 6134
0.01 0.125 -0.707285 -3.36374 -0.209455 -0.248029 6047
0.01 0.13 -0.707285 -3.35045 -0.192669 -0.232331 5908
0.01 0.135 -0.707285 -3.32458 -0.175983 -0.216695 5887
0.01 0.14 -0.707285 -3.2862 -0.159456 -0.201183 5826
0.01 0.145 -0.707285 -3.23544 -0.143148 -0.185856 5777
0.01 0.15 -0.707285 -3.17249 -0.127136 -0.170774 5745
0.01 0.155 -0.707285 -3.09756 -0.111455 -0.155998 5662
0.01 0.16 -0.707285 -3.01093 -0.0961936 -0.141584 5629
0.01 0.165 -0.707285 -2.91292 -0.0813692 -0.12759 5582
0.01 0.17 -0.707285 -2.80388 -0.0670834 -0.114072 5579
0.01 0.175 -0.707285 -2.68423 -0.0533684 -0.101082 5518
0.01 0.18 -0.707285 -2.5544 -0.0402668 -0.0886727 5431
0.01 0.185 -0.707285 -2.41489 -0.0278521 -0.0768919 5419
0.01 0.19 -0.707285 -2.26622 -0.0161464 -0.0657865 5397
0.01 0.195 -0.707285 -2.10894 -0.00519608 -0.0554004 5330
0.01 0.2 -0.707285 -1.94366 0.00493537 -0.0457744 5323
0.01 0.205 -0.707285 -1.771 0.0142162 -0.0369467 5306
0.01 0.21 -0.707285 -1.5916 0.0226314 -0.028952 5209
0.01 0.215 -0.707285 -1.40616 0.0301011 -0.0218219 5185
0.01 0.22 -0.707285 -1.21537 0.0366762 -0.0155846 5147
0.01 0.225 -0.707285 -1.01995 0.0422662 -0.0102646 5106
0.01 0.23 -0.707285 -0.820657 0.0468454 -0.00588289 5089
0.01 0.235 -0.707285 -0.618241 0.0504679 -0.00245687 5082
0.01 0.24 -0.707285 -0.413472 0.0530349 -1.67915e-09 5046
0.01 0.245 -0.707285 -0.20713 0.0545955 0.00147801 5021
0.01 0.25 -0.707285 -1.76775e-07 0.0551088 0.00197132 5006
0.01 0.255 -0.707285 0.20713 0.0545957 0.00147801 5007
0.01 0.26 -0.707285 0.413472 0.053036 1.67915e-09 4958
0.01 0.265 -0.707285 0.618241 0.050466 -0.00245686 4955
0.01 0.27 -0.707285 0.820657 0.046844 -0.00588288 4925
0.01 0.275 -0.707285 1.01995 0.0422637 -0.0102645 4879
0.01 0.28 -0.707285 1.21536 0.0366745 -0.0155845 4815
0.01 0.285 -0.707285 1.40616 0.0301025 -0.0218219 4859
0.01 0.29 -0.707285 1.5916 0.0226327 -0.028952 4845
0.01 0.295 -0.707285 1.771 0.0142165 -0.0369467 4829
0.01 0.3 -0.707285 1.94366 0.00493438 -0.0457744 4778
0.01 0.305 -0.707285 2.10894 -0.00519701 -0.0554004 4795
0.01 0.31 -0.707285 2.26622 -0.0161427 -0.0657865 4795
0.01 0.315 -0.707285 2.41489 -0.0278469 -0.0768919 4733
0.01 0.32 -0.707285 2.5544 -0.0402717 -0.0886727 4727
0.01 0.325 -0.707285 2.68423 -0.053358 -0.101082 4665
0.01 0.33 -0.707285 2.80388 -0.0670822 -0.114072 4686
0.01 0.335 -0.707285 2.91292 -0.0813705 -0.12759 4692
0.01 0.34 -0.707285 3.01093 -0.0961925 -0.141584 4664
0.01 0.345 -0.707285 3.09756 -0.111456 -0.155998 4681
0.01 0.35 -0.707285 3.17249 -0.127138 -0.170774 4633
0.01 0.355 -0.707285 3.23544 -0.143151 -0.185856 4582
0.01 0.36 -0.707285 3.2862 -0.159455 -0.201183 4610
0.01 0.365 -0.707285 3.32458 -0.175986 -0.216695 4616
0.01 0.37 -0.707285 3.35045 -0.19267 -0.232331 4624
0.01 0.375 -0.707285 3.36374 -0.209456 -0.248029 4612
0.01 0.38 -0.707285 3.36441 -0.226277 -0.263726 4549
0.01 0.385 -0.707285 3.35247 -0.24307 -0.279362 4546
0.01 0.39 -0.707285 3.32801 -0.259771 -0.294874 4506
0.01 0.395 -0.707285 3.29113 -0.276319 -0.310201 4517
0.01 0.4 -0.707285 3.24199 -0.292652 -0.325283 4521
0.01 0.405 -0.707285 3.18081 -0.308708 -0.34006 4552
0.01 0.41 -0.707285 3.10785 -0.324431 -0.354473 4559
0.01 0.415 -0.707285 3.02341 -0.339758 -0.368467 4534
0.01 0.42 -0.707285 2.92783 -0.354638 -0.381985 4519
0.01 0.425 -0.707285 2.82152 -0.369011 -0.394975 4529
0.01 0.43 -0.707285 2.7049 -0.382823 -0.407385 4517
0.01 0.435 -0.707285 2.57844 -0.396034 -0.419165 4504
0.01 0.44 -0.707285 2.44267 -0.408585 -0.430271 4467
0.01 0.445 -0.707285 2.29811 -0.420437 -0.440657 4477
0.01 0.45 -0.707285 2.14537 -0.431544 -0.450283 4486
0.01 0.455 -0.707285 1.98503 -0.441879 -0.459111 4457
0.01 0.46 -0.707285 1.81776 -0.451375 -0.467105 4441
0.01 0.465 -0.707285 1.64422 -0.460031 -0.474235 4431
0.01 0.47 -0.707285 1.46509 -0.467811 -0.480473 4452
0.01 0.475 -0.707285 1.2811 -0.474674 -0.485793 4457
0.01 0.48 -0.707285 1.09296 -0.480603 -0.490174 4492
0.01 0.485 -0.707285 0.901441 -0.485598 -0.4936 4476
0.01 0.49 -0.707285 0.707286 -0.489624 -0.496057 4411
0.01 0.495 -0.707285 0.511267 -0.492671 -0.497535 4430
0.01 0.5 -0.707285 0.31416 -0.494732 -0.498029 4458
0.01 0.505 -0.707285 0.116742 -0.495798 -0.497535 4430
0.01 0.51 -0.707285 -0.0802063 -0.495904 -0.496057 4411
0.01 0.515 -0.707285 -0.27591 -0.495003 -0.4936 4474
0.01 0.52 -0.707285 -0.4696 -0.493151 -0.490174 4494
0.01 0.525 -0.707285 -0.660514 -0.49031 -0.485793 4457
0.01 0.53 -0.707285 -0.847902 -0.486542 -0.480473 4452
0.01 0.535 -0.707285 -1.03103 -0.481853 -0.474235 4431
0.01 0.54 -0.707285 -1.20918 -0.476255 -0.467105 4441
0.01 0.545 -0.707285 -1.38166 -0.469778 -0.459111 4457
0.01 0.55 -0.707285 -1.5478 -0.462454 -0.450283 4484
0.01 0.555 -0.707285 -1.70694 -0.454305 -0.440657 4479
0.01 0.56 -0.707285 -1.85847 -0.445392 -0.430271 4467
0.01 0.565 -0.707285 -2.0018 -0.435741 -0.419165 4504
0.01 0.57 -0.707285 -2.13638 -0.425404 -0.407385 4517
0.01 0.575 -0.707285 -2.26168 -0.414409 -0.394975 4529
0.01 0.58 -0.707285 -2.37723 -0.40281 -0.381985 4519
0.01 0.585 -0.707285 -2.48259 -0.39066 -0.368467 4532
0.01 0.59 -0.707285 -2.57734 -0.37801 -0.354474 4561
0.01 0.595 -0.707285 -2.66114 -0.36491 -0.34006 4552
0.01 0.6 -0.707285 -2.73367 -0.351423 -0.325283 4521
0.01 0.605 -0.707285 -2.79466 -0.337605 -0.310201 4517
0.01 0.61 -0.707285 -2.84388 -0.323507 -0.294874 4506
0.01 0.615 -0.707285 -2.88117 -0.309195 -0.279362 4546
0.01 0.62 -0.707285 -2.90638 -0.294727 -0.263726 4547
0.01 0.625 -0.707285 -2.91945 -0.280162 -0.248029 4614
0.01 0.63 -0.707285 -2.92034 -0.265562 -0.232331 4624
0.01 0.635 -0.707285 -2.90906 -0.250989 -0.216695 4616
0.01 0.64 -0.707285 -2.88569 -0.236501 -0.201183 4610
0.01 0.645 -0.707285 -2.85034 -0.222161 -0.185856 4582
0.01 0.65 -0.707285 -2.80317 -0.20803 -0.170774 4633
0.01 0.655 -0.707285 -2.7444 -0.194158 -0.155998 4679
0.01 0.66 -0.707285 -2.67426 -0.18061 -0.141584 4666
0.01 0.665 -0.707285 -2.59308 -0.167448 -0.12759 4692
0.01 0.67 -0.707285 -2.50119 -0.15471 -0.114072 4686
0.01 0.675 -0.707285 -2.39898 -0.142459 -0.101082 4665
0.01 0.68 -0.707285 -2.28688 -0.130742 -0.0886727 4727
0.01 0.685 -0.707285 -2.16535 -0.119617 -0.0768919 4733
0.01 0.69 -0.707285 -2.03492 -0.109118 -0.0657865 4793
0.01 0.695 -0.707285 -1.89611 -0.0992917 -0.0554004 4797
0.01 0.7 -0.707285 -1.7495 -0.0901641 -0.0457744 4778
0.01 0.705 -0.707285 -1.5957 -0.0818011 -0.0369467 4829
0.01 0.71 -0.707285 -1.43535 -0.0742254 -0.028952 4845
0.01 0.715 -0.707285 -1.26909 -0.0674599 -0.0218219 4859
0.01 0.72 -0.707285 -1.09763 -0.0615529 -0.0155846 4815
0.01 0.725 -0.707285 -0.921661 -0.0565092 -0.0102646 4877
0.01 0.73 -0.707285 -0.741908 -0.0523488 -0.00588289 4927
0.01 0.735 -0.707285 -0.559111 -0.0490896 -0.00245687 4955
0.01 0.74 -0.707285 -0.37402 -0.0467632 -5.03744e-09 4958
0.01 0.745 -0.707285 -0.187395 -0.0453541 0.001478 5007
0.01 0.75 -0.707285 -4.79818e-07 -0.044877 0.00197132 5006
0.01 0.755 -0.707285 0.187394 -0.0453537 0.00147801 5021
0.01 0.76 -0.707285 0.374019 -0.0467639 5.03743e-09 5044
0.01 0.765 -0.707285 0.55911 -0.0490911 -0.00245686 5084