TITLE="Pressure integrated from Omni2D"
VARIABLES = "X","Y","Dudt","DvDt","Pcal","Preal","Count"
ZONE I=201, J=201
0 0 -0 -0 -0.499836 -0.5 1326
0 0.005 -0 -0.197262 -0.499325 -0.499507 5814
0 0.01 -0 -0.393746 -0.497853 -0.498029 7362
0 0.015 -0 -0.588676 -0.495411 -0.495572 7008
0 0.02 -0 -0.781282 -0.491993 -0.492146 6664
0 0.025 -0 -0.970805 -0.4876 -0.487764 6417
0 0.03 -0 -1.1565 -0.482286 -0.482444 6151
0 0.035 -0 -1.33763 -0.476047 -0.476207 5970
0 0.04 -0 -1.51347 -0.468922 -0.469077 5856
0 0.045 -0 -1.68335 -0.460926 -0.461082 5681
0 0.05 -0 -1.84658 -0.452114 -0.452254 5558
0 0.055 -0 -2.00253 -0.442493 -0.442628 5415
0 0.06 -0 -2.15057 -0.432113 -0.432242 5324
0 0.065 -0 -2.29012 -0.421009 -0.421137 5208
0 0.07 -0 -2.42064 -0.409228 -0.409356 5097
0 0.075 -0 -2.5416 -0.396823 -0.396946 5058
0 0.08 -0 -2.65253 -0.383838 -0.383957 4957
0 0.085 -0 -2.753 -0.37032 -0.370438 4856
0 0.09 -0 -2.8426 -0.356333 -0.356445 4846
0 0.095 -0 -2.92098 -0.341921 -0.342031 4751
0 0.1 -0 -2.98783 -0.32715 -0.327254 4664
0 0.105 -0 -3.04289 -0.312073 -0.312172 4690
0 0.11 -0 -3.08595 -0.29675 -0.296845 4550
0 0.115 -0 -3.11682 -0.281244 -0.281333 4561
0 0.12 -0 -3.13539 -0.265613 -0.265698 4457
0 0.125 -0 -3.14159 -0.249921 -0.25 4439
0 0.13 -0 -3.13539 -0.234227 -0.234302 4400
0 0.135 -0 -3.11682 -0.218598 -0.218667 4352
0 0.14 -0 -3.08595 -0.203089 -0.203155 4309
0 0.145 -0 -3.04289 -0.187765 -0.187828 4265
0 0.15 -0 -2.98783 -0.172689 -0.172746 4242
0 0.155 -0 -2.92098 -0.157918 -0.157969 4232
0 0.16 -0 -2.8426 -0.143509 -0.143555 4119
0 0.165 -0 -2.753 -0.12952 -0.129562 4159
0 0.17 -0 -2.65253 -0.116013 -0.116043 4085
0 0.175 -0 -2.5416 -0.103019 -0.103054 4075
0 0.18 -0 -2.42064 -0.0906236 -0.090644 4084
0 0.185 -0 -2.29012 -0.0788458 -0.0788632 4024
0 0.19 -0 -2.15057 -0.0677382 -0.0677579 4028
0 0.195 -0 -2.00253 -0.0573614 -0.0573717 3921
0 0.2 -0 -1.84658 -0.0477243 -0.0477458 3905
0 0.205 -0 -1.68335 -0.0389168 -0.038918 3910
0 0.21 -0 -1.51347 -0.0309279 -0.0309233 3867
0 0.215 -0 -1.33763 -0.0237926 -0.0237932 3846
0 0.22 -0 -1.1565 -0.0175647 -0.0175559 3863
0 0.225 -0 -0.970806 -0.0122482 -0.0122359 3827
0 0.23 -0 -0.781282 -0.00786226 -0.00785421 3851
0 0.235 -0 -0.588676 -0.00444244 -0.00442819 3772
0 0.24 -0 -0.393746 -0.00197913 -0.00197133 3762
0 0.245 -0 -0.197262 -0.000488181 -0.000493319 3762
0 0.25 -0 -1.68357e-07 7.58097e-06 -3.60822e-16 3726
0 0.255 -0 0.197262 -0.000483532 -0.000493317 3691
0 0.26 -0 0.393746 -0.00198053 -0.00197132 3708
0 0.265 -0 0.588676 -0.00444077 -0.00442818 3704
0 0.27 -0 0.781282 -0.00786181 -0.00785421 3658
0 0.275 -0 0.970805 -0.0122469 -0.0122359 3642
0 0.28 -0 1.1565 -0.0175652 -0.0175559 3647
0 0.285 -0 1.33762 -0.0237926 -0.0237932 3627
0 0.29 -0 1.51347 -0.0309251 -0.0309233 3635
0 0.295 -0 1.68335 -0.0389171 -0.038918 3608
0 0.3 -0 1.84658 -0.0477277 -0.0477457 3598
0 0.305 -0 2.00253 -0.05736 -0.0573717 3577
0 0.31 -0 2.15057 -0.0677384 -0.0677578 3599
0 0.315 -0 2.29012 -0.0788449 -0.0788632 3526
0 0.32 -0 2.42064 -0.0906236 -0.090644 3552
0 0.325 -0 2.5416 -0.10302 -0.103054 3546
0 0.33 -0 2.65253 -0.116012 -0.116043 3553
0 0.335 -0 2.753 -0.129526 -0.129562 3537
0 0.34 -0 2.8426 -0.143513 -0.143555 3520
0 0.345 -0 2.92098 -0.157919 -0.157969 3496
0 0.35 -0 2.98783 -0.17269 -0.172746 3465
0 0.355 -0 3.04289 -0.187767 -0.187828 3430
0 0.36 -0 3.08595 -0.20309 -0.203155 3484
0 0.365 -0 3.11682 -0.218599 -0.218667 3470
0 0.37 -0 3.13539 -0.234228 -0.234302 3456
0 0.375 -0 3.14159 -0.249921 -0.25 3456
0 0.38 -0 3.13539 -0.265614 -0.265698 3435
0 0.385 -0 3.11682 -0.281244 -0.281333 3426
0 0.39 -0 3.08595 -0.296751 -0.296845 3415
0 0.395 -0 3.04289 -0.312073 -0.312172 3400
0 0.4 -0 2.98783 -0.327151 -0.327254 3405
0 0.405 -0 2.92098 -0.341923 -0.342031 3423
0 0.41 -0 2.8426 -0.356331 -0.356445 3454
0 0.415 -0 2.753 -0.37032 -0.370438 3452
0 0.42 -0 2.65253 -0.383836 -0.383957 3376
0 0.425 -0 2.5416 -0.396816 -0.396946 3386
0 0.43 -0 2.42064 -0.409227 -0.409356 3410
0 0.435 -0 2.29012 -0.421005 -0.421137 3394
0 0.44 -0 2.15057 -0.432107 -0.432242 3416
0 0.445 -0 2.00253 -0.44249 -0.442628 3353
0 0.45 -0 1.84658 -0.452103 -0.452254 3341
0 0.455 -0 1.68335 -0.460929 -0.461082 3379
0 0.46 -0 1.51347 -0.468923 -0.469077 3348
0 0.465 -0 1.33763 -0.476058 -0.476207 3357
0 0.47 -0 1.1565 -0.482289 -0.482444 3363
0 0.475 -0 0.970806 -0.487603 -0.487764 3343
0 0.48 -0 0.781283 -0.491991 -0.492146 3309
0 0.485 -0 0.588676 -0.495412 -0.495572 3336
0 0.49 -0 0.393746 -0.497862 -0.498029 3370
0 0.495 -0 0.197263 -0.499338 -0.499507 3378
0 0.5 -0 3.36715e-07 -0.49983 -0.5 3376
0 0.505 -0 -0.197262 -0.499337 -0.499507 3378
0 0.51 -0 -0.393746 -0.497862 -0.498029 3370
0 0.515 -0 -0.588675 -0.495411 -0.495572 3334
0 0.52 -0 -0.781282 -0.491992 -0.492146 3311
0 0.525 -0 -0.970805 -0.487602 -0.487764 3343
0 0.53 -0 -1.1565 -0.482289 -0.482444 3363
0 0.535 -0 -1.33762 -0.476059 -0.476207 3357
0 0.54 -0 -1.51347 -0.468924 -0.469077 3348
0 0.545 -0 -1.68335 -0.460929 -0.461082 3379
0 0.55 -0 -1.84658 -0.452104 -0.452254 3339
0 0.555 -0 -2.00253 -0.44249 -0.442628 3355
0 0.56 -0 -2.15057 -0.432109 -0.432242 3415
0 0.565 -0 -2.29012 -0.421005 -0.421137 3394
0 0.57 -0 -2.42064 -0.409228 -0.409356 3410
0 0.575 -0 -2.5416 -0.396816 -0.396946 3386
0 0.58 -0 -2.65253 -0.383836 -0.383957 3374
0 0.585 -0 -2.753 -0.37032 -0.370438 3450
0 0.59 -0 -2.8426 -0.356331 -0.356445 3454
0 0.595 -0 -2.92098 -0.341923 -0.342031 3423
0 0.6 -0 -2.98783 -0.327151 -0.327254 3405
0 0.605 -0 -3.04289 -0.312072 -0.312173 3400
0 0.61 -0 -3.08595 -0.296751 -0.296845 3415
0 0.615 -0 -3.11682 -0.281245 -0.281333 3426
0 0.62 -0 -3.13539 -0.265614 -0.265698 3434
0 0.625 -0 -3.14159 -0.249921 -0.25 3458
0 0.63 -0 -3.13539 -0.234228 -0.234302 3456
0 0.635 -0 -3.11682 -0.2186 -0.218667 3470
0 0.64 -0 -3.08595 -0.203089 -0.203155 3484
0 0.645 -0 -3.04289 -0.187767 -0.187828 3430
0 0.65 -0 -2.98783 -0.172691 -0.172746 3465
0 0.655 -0 -2.92098 -0.157919 -0.157969 3494
0 0.66 -0 -2.8426 -0.143513 -0.143555 3520
0 0.665 -0 -2.753 -0.12952 -0.129562 3537
0 0.67 -0 -2.65253 -0.116013 -0.116043 3553
0 0.675 -0 -2.5416 -0.103019 -0.103054 3546
0 0.68 -0 -2.42064 -0.0906218 -0.090644 3552
0 0.685 -0 -2.29012 -0.0788449 -0.0788632 3526
0 0.69 -0 -2.15057 -0.0677386 -0.0677579 3597
0 0.695 -0 -2.00253 -0.0573606 -0.0573717 3579
0 0.7 -0 -1.84658 -0.0477266 -0.0477458 3598
0 0.705 -0 -1.68335 -0.0389165 -0.038918 3608
0 0.71 -0 -1.51347 -0.0309246 -0.0309233 3635
0 0.715 -0 -1.33763 -0.0237925 -0.0237933 3628
0 0.72 -0 -1.1565 -0.0175622 -0.0175559 3647
0 0.725 -0 -0.970806 -0.0122445 -0.0122359 3640
0 0.73 -0 -0.781283 -0.00786116 -0.00785422 3660
0 0.735 -0 -0.588676 -0.00443896 -0.00442819 3704
0 0.74 -0 -0.393746 -0.00196307 -0.00197133 3708
0 0.745 -0 -0.197263 -0.000487912 -0.00049332 3691
0 0.75 -0 -5.05072e-07 4.89876e-06 -3.21965e-15 3726
0 0.755 -0 0.197262 -0.000494439 -0.000493315 3762
0 0.76 -0 0.393745 -0.00198578 -0.00197132 3760
0 0.765 -0 0.588675 -0.00443881 -0.00442818 3775
0 0.77 -0 0.781282 -0.00786104 -0.0078542 3851
0 0.775 -0 0.970805 -0.0122454 -0.0122359 3827
0 0.78 -0 1.1565 -0.0175624 -0.0175559 3863
0 0.785 -0 1.33762 -0.0237924 -0.0237932 3846
0 0.79 -0 1.51347 -0.0309247 -0.0309233 3867
0 0.795 -0 1.68335 -0.0389173 -0.038918 3908
0 0.8 -0 1.84658 -0.047726 -0.0477457 3907
0 0.805 -0 2.00253 -0.0573602 -0.0573717 3921
0 0.81 -0 2.15057 -0.0677384 -0.0677578 4028
0 0.815 -0 2.29012 -0.0788441 -0.0788632 4024
0 0.82 -0 2.42064 -0.0906226 -0.090644 4084
0 0.825 -0 2.5416 -0.103019 -0.103054 4075
0 0.83 -0 2.65253 -0.116013 -0.116043 4083
0 0.835 -0 2.753 -0.129518 -0.129562 4161
0 0.84 -0 2.8426 -0.14351 -0.143555 4119
0 0.845 -0 2.92098 -0.157919 -0.157969 4232
0 0.85 -0 2.98783 -0.17269 -0.172746 4242
0 0.855 -0 3.04289 -0.187766 -0.187827 4265
0 0.86 -0 3.08595 -0.203089 -0.203155 4309
0 0.865 -0 3.11682 -0.218599 -0.218667 4350
0 0.87 -0 3.13539 -0.234228 -0.234302 4402
0 0.875 -0 3.14159 -0.249921 -0.25 4439
0 0.88 -0 3.13539 -0.265614 -0.265698 4457
0 0.885 -0 3.11682 -0.281244 -0.281333 4561
0 0.89 -0 3.08595 -0.29675 -0.296845 4550
0 0.895 -0 3.04289 -0.312075 -0.312172 4690
0 0.9 -0 2.98783 -0.327151 -0.327254 4662
0 0.905 -0 2.92098 -0.34192 -0.342031 4753
0 0.91 -0 2.8426 -0.356327 -0.356445 4846
0 0.915 -0 2.753 -0.37032 -0.370438 4856
0 0.92 -0 2.65253 -0.383837 -0.383957 4957
0 0.925 -0 2.5416 -0.396819 -0.396946 5058
0 0.93 -0 2.42064 -0.409228 -0.409356 5097
0 0.935 -0 2.29012 -0.421006 -0.421137 5206
0 0.94 -0 2.15057 -0.43211 -0.432242 5326
0 0.945 -0 2.00253 -0.442491 -0.442628 5415
0 0.95 -0 1.84658 -0.452093 -0.452254 5557
0 0.955 -0 1.68335 -0.46093 -0.461082 5681
0 0.96 -0 1.51347 -0.468923 -0.469077 5857
0 0.965 -0 1.33763 -0.476051 -0.476207 5970
0 0.97 -0 1.1565 -0.482276 -0.482444 6149
0 0.975 -0 0.970806 -0.4876 -0.487764 6419
0 0.98 -0 0.781283 -0.491991 -0.492146 6664
0 0.985 -0 0.588676 -0.495411 -0.495572 7008
0 0.99 -0 0.393747 -0.497857 -0.498029 7362
0 0.995 -0 0.197263 -0.49933 -0.499507 5814
0 1 -0 6.73429e-07 -0.499836 -0.5 1326
0.005 0 -0.197262 -0 -0.499324 -0.499507 5814
0.005 0.005 -0.197262 -0.197262 -0.498831 -0.499013 6905
0.005 0.01 -0.197262 -0.393746 -0.497363 -0.497535 8463
0.005 0.015 -0.197262 -0.588676 -0.494919 -0.495079 9535
0.005 0.02 -0.197262 -0.781282 -0.491501 -0.491652 9130
0.005 0.025 -0.197262 -0.970805 -0.487111 -0.487271 8805
0.005 0.03 -0.197262 -1.1565 -0.48178 -0.481951 8448
0.005 0.035 -0.197262 -1.33763 -0.475544 -0.475713 8078
0.005 0.04 -0.197262 -1.51347 -0.468433 -0.468583 7918
0.005 0.045 -0.197262 -1.68335 -0.460442 -0.460589 7700
0.005 0.05 -0.197262 -1.84658 -0.451605 -0.451761 7523
0.005 0.055 -0.197262 -2.00253 -0.441991 -0.442135 7350
0.005 0.06 -0.197262 -2.15057 -0.431618 -0.431749 7196
0.005 0.065 -0.197262 -2.29012 -0.420519 -0.420643 7024
0.005 0.07 -0.197262 -2.42064 -0.40874 -0.408863 6920
0.005 0.075 -0.197262 -2.5416 -0.396333 -0.396453 6822
0.005 0.08 -0.197262 -2.65253 -0.383347 -0.383463 6729
0.005 0.085 -0.197262 -2.753 -0.369826 -0.369945 6540
0.005 0.09 -0.197262 -2.8426 -0.355837 -0.355952 6457
0.005 0.095 -0.197262 -2.92098 -0.341427 -0.341538 6446
0.005 0.1 -0.197262 -2.98783 -0.326655 -0.326761 6297
0.005 0.105 -0.197262 -3.04289 -0.311579 -0.311679 6241
0.005 0.11 -0.197262 -3.08595 -0.296257 -0.296352 6148
0.005 0.115 -0.197262 -3.11682 -0.28075 -0.28084 6055
0.005 0.12 -0.197262 -3.13539 -0.26512 -0.265204 6038
0.005 0.125 -0.197262 -3.14159 -0.249427 -0.249507 5912
0.005 0.13 -0.197262 -3.13539 -0.233736 -0.233809 5892
0.005 0.135 -0.197262 -3.11682 -0.218102 -0.218173 5821
0.005 0.14 -0.197262 -3.08595 -0.202596 -0.202661 5752
0.005 0.145 -0.197262 -3.04289 -0.187275 -0.187334 5709
0.005 0.15 -0.197262 -2.98783 -0.172196 -0.172252 5680
0.005 0.155 -0.197262 -2.92098 -0.157425 -0.157476 5620
0.005 0.16 -0.197262 -2.8426 -0.143012 -0.143062 5549
0.005 0.165 -0.197262 -2.753 -0.129023 -0.129068 5518
0.005 0.17 -0.197262 -2.65253 -0.115521 -0.11555 5473
0.005 0.175 -0.197262 -2.5416 -0.102528 -0.10256 5403
0.005 0.18 -0.197262 -2.42064 -0.0901312 -0.0901507 5383
0.005 0.185 -0.197262 -2.29012 -0.0783544 -0.0783699 5325
0.005 0.19 -0.197262 -2.15057 -0.0672474 -0.0672645 5295
0.005 0.195 -0.197262 -2.00253 -0.0568664 -0.0568784 5278
0.005 0.2 -0.197262 -1.84658 -0.0472412 -0.0472524 5229
0.005 0.205 -0.197262 -1.68335 -0.0384154 -0.0384247 5206
0.005 0.21 -0.197262 -1.51347 -0.0304362 -0.03043 5156
0.005 0.215 -0.197262 -1.33763 -0.0232958 -0.0232999 5086
0.005 0.22 -0.197262 -1.1565 -0.0170614 -0.0170626 5064
0.005 0.225 -0.197262 -0.970806 -0.0117553 -0.0117426 5062
0.005 0.23 -0.197262 -0.781282 -0.00737338 -0.00736089 5039
0.005 0.235 -0.197262 -0.588676 -0.00395249 -0.00393487 5031
0.005 0.24 -0.197262 -0.393746 -0.00148814 -0.00147801 5025
0.005 0.245 -0.197262 -0.197262 -1.08667e-05 -8.41233e-10 4975
0.005 0.25 -0.197262 -1.68357e-07 0.000493418 0.000493318 4906
0.005 0.255 -0.197262 0.197262 -6.30692e-06 8.41232e-10 4923
0.005 0.26 -0.197262 0.393746 -0.00148394 -0.00147801 4903
0.005 0.265 -0.197262 0.588676 -0.0039493 -0.00393487 4863
0.005 0.27 -0.197262 0.781282 -0.00737186 -0.00736089 4821
0.005 0.275 -0.197262 0.970805 -0.0117555 -0.0117425 4851
0.005 0.28 -0.197262 1.1565 -0.0170642 -0.0170626 4814
0.005 0.285 -0.197262 1.33762 -0.023294 -0.0232999 4776
0.005 0.29 -0.197262 1.51347 -0.0304359 -0.03043 4738
0.005 0.295 -0.197262 1.68335 -0.0384227 -0.0384247 4753
0.005 0.3 -0.197262 1.84658 -0.0472389 -0.0472524 4726
0.005 0.305 -0.197262 2.00253 -0.0568695 -0.0568784 4727
0.005 0.31 -0.197262 2.15057 -0.0672486 -0.0672645 4670
0.005 0.315 -0.197262 2.29012 -0.0783546 -0.0783699 4658
0.005 0.32 -0.197262 2.42064 -0.0901326 -0.0901507 4712
0.005 0.325 -0.197262 2.5416 -0.10253 -0.10256 4672
0.005 0.33 -0.197262 2.65253 -0.115522 -0.11555 4625
0.005 0.335 -0.197262 2.753 -0.129026 -0.129068 4627
0.005 0.34 -0.197262 2.8426 -0.143017 -0.143062 4593
0.005 0.345 -0.197262 2.92098 -0.157426 -0.157476 4608
0.005 0.35 -0.197262 2.98783 -0.172199 -0.172252 4607
0.005 0.355 -0.197262 3.04289 -0.187276 -0.187334 4601
0.005 0.36 -0.197262 3.08595 -0.202597 -0.202661 4592
0.005 0.365 -0.197262 3.11682 -0.218104 -0.218173 4585
0.005 0.37 -0.197262 3.13539 -0.233736 -0.233809 4539
0.005 0.375 -0.197262 3.14159 -0.249427 -0.249507 4497
0.005 0.38 -0.197262 3.13539 -0.265121 -0.265204 4519
0.005 0.385 -0.197262 3.11682 -0.280751 -0.28084 4525
0.005 0.39 -0.197262 3.08595 -0.296259 -0.296352 4538
0.005 0.395 -0.197262 3.04289 -0.311579 -0.311679 4537
0.005 0.4 -0.197262 2.98783 -0.326658 -0.326761 4503
0.005 0.405 -0.197262 2.92098 -0.341429 -0.341538 4508
0.005 0.41 -0.197262 2.8426 -0.355837 -0.355951 4459
0.005 0.415 -0.197262 2.753 -0.369829 -0.369945 4453
0.005 0.42 -0.197262 2.65253 -0.383344 -0.383463 4436
0.005 0.425 -0.197262 2.5416 -0.396325 -0.396453 4452
0.005 0.43 -0.197262 2.42064 -0.408735 -0.408863 4449
0.005 0.435 -0.197262 2.29012 -0.420513 -0.420643 4437
0.005 0.44 -0.197262 2.15057 -0.431614 -0.431749 4425
0.005 0.445 -0.197262 2.00253 -0.441998 -0.442135 4437
0.005 0.45 -0.197262 1.84658 -0.451611 -0.451761 4444
0.005 0.455 -0.197262 1.68335 -0.460438 -0.460589 4434
0.005 0.46 -0.197262 1.51347 -0.468433 -0.468583 4434
0.005 0.465 -0.197262 1.33763 -0.475567 -0.475713 4452
0.005 0.47 -0.197262 1.1565 -0.481799 -0.481951 4481
0.005 0.475 -0.197262 0.970806 -0.487111 -0.487271 4451
0.005 0.48 -0.197262 0.781283 -0.491501 -0.491652 4430
0.005 0.485 -0.197262 0.588676 -0.494922 -0.495079 4457
0.005 0.49 -0.197262 0.393746 -0.497369 -0.497535 4433
0.005 0.495 -0.197262 0.197263 -0.498844 -0.499013 4439
0.005 0.5 -0.197262 3.36715e-07 -0.499338 -0.499507 4418
0.005 0.505 -0.197262 -0.197262 -0.498843 -0.499013 4439
0.005 0.51 -0.197262 -0.393746 -0.497368 -0.497535 4433
0.005 0.515 -0.197262 -0.588675 -0.49492 -0.495079 4455
0.005 0.52 -0.197262 -0.781282 -0.491501 -0.491652 4432
0.005 0.525 -0.197262 -0.970805 -0.487112 -0.487271 4451
0.005 0.53 -0.197262 -1.1565 -0.481798 -0.481951 4481
0.005 0.535 -0.197262 -1.33762 -0.475567 -0.475713 4452
0.005 0.54 -0.197262 -1.51347 -0.468433 -0.468583 4434
0.005 0.545 -0.197262 -1.68335 -0.460439 -0.460589 4434
0.005 0.55 -0.197262 -1.84658 -0.451615 -0.451761 4442
0.005 0.555 -0.197262 -2.00253 -0.441999 -0.442135 4440
0.005 0.56 -0.197262 -2.15057 -0.431614 -0.431749 4425
0.005 0.565 -0.197262 -2.29012 -0.420514 -0.420643 4437
0.005 0.57 -0.197262 -2.42064 -0.408736 -0.408863 4449
0.005 0.575 -0.197262 -2.5416 -0.396325 -0.396453 4454
0.005 0.58 -0.197262 -2.65253 -0.383345 -0.383463 4436
0.005 0.585 -0.197262 -2.753 -0.369829 -0.369945 4451
0.005 0.59 -0.197262 -2.8426 -0.355835 -0.355952 4461
0.005 0.595 -0.197262 -2.92098 -0.341429 -0.341538 4508
0.005 0.6 -0.197262 -2.98783 -0.326657 -0.326761 4503
0.005 0.605 -0.197262 -3.04289 -0.311579 -0.311679 4537
0.005 0.61 -0.197262 -3.08595 -0.296259 -0.296352 4538
0.005 0.615 -0.197262 -3.11682 -0.280751 -0.28084 4525
0.005 0.62 -0.197262 -3.13539 -0.265121 -0.265204 4517
0.005 0.625 -0.197262 -3.14159 -0.249427 -0.249507 4498
0.005 0.63 -0.197262 -3.13539 -0.233737 -0.233809 4539
0.005 0.635 -0.197262 -3.11682 -0.218104 -0.218173 4585
0.005 0.64 -0.197262 -3.08595 -0.202597 -0.202661 4592
0.005 0.645 -0.197262 -3.04289 -0.187276 -0.187334 4601
0.005 0.65 -0.197262 -2.98783 -0.172199 -0.172252 4607
0.005 0.655 -0.197262 -2.92098 -0.157426 -0.157476 4606
0.005 0.66 -0.197262 -2.8426 -0.143017 -0.143062 4595
0.005 0.665 -0.197262 -2.753 -0.129026 -0.129068 4627
0.005 0.67 -0.197262 -2.65253 -0.115521 -0.11555 4625
0.005 0.675 -0.197262 -2.5416 -0.102529 -0.10256 4672
0.005 0.68 -0.197262 -2.42064 -0.0901319 -0.0901507 4712
0.005 0.685 -0.197262 -2.29012 -0.0783542 -0.0783699 4658
0.005 0.69 -0.197262 -2.15057 -0.0672489 -0.0672645 4668
0.005 0.695 -0.197262 -2.00253 -0.0568696 -0.0568784 4729
0.005 0.7 -0.197262 -1.84658 -0.0472373 -0.0472525 4726
0.005 0.705 -0.197262 -1.68335 -0.038421 -0.0384247 4753
0.005 0.71 -0.197262 -1.51347 -0.030434 -0.03043 4737
0.005 0.715 -0.197262 -1.33763 -0.0232931 -0.0232999 4776
0.005 0.72 -0.197262 -1.1565 -0.0170601 -0.0170626 4814
0.005 0.725 -0.197262 -0.970806 -0.0117531 -0.0117426 4849
0.005 0.73 -0.197262 -0.781283 -0.00737127 -0.0073609 4823
0.005 0.735 -0.197262 -0.588676 -0.00394832 -0.00393488 4863
0.005 0.74 -0.197262 -0.393746 -0.00148641 -0.00147801 4903
0.005 0.745 -0.197262 -0.197263 -8.78051e-06 -2.5237e-09 4923
0.005 0.75 -0.197262 -5.05072e-07 0.000481974 0.000493318 4906
0.005 0.755 -0.197262 0.197262 -9.58517e-06 2.5237e-09 4975
0.005 0.76 -0.197262 0.393745 -0.00149037 -0.001478 5023
0.005 0.765 -0.197262 0.588675 -0.0039482 -0.00393486 5033
0.005 0.77 -0.197262 0.781282 -0.00737091 -0.00736088 5038
0.005 0.775 -0.197262 0.970805 -0.0117549 -0.0117425 5062
0.005 0.78 -0.197262 1.1565 -0.0170579 -0.0170625 5064
0.005 0.785 -0.197262 1.33762 -0.0232903 -0.0232999 5086
0.005 0.79 -0.197262 1.51347 -0.0304348 -0.03043 5156
0.005 0.795 -0.197262 1.68335 -0.0384144 -0.0384247 5204
0.005 0.8 -0.197262 1.84658 -0.0472431 -0.0472524 5231
0.005 0.805 -0.197262 2.00253 -0.0568632 -0.0568783 5278
0.005 0.81 -0.197262 2.15057 -0.0672444 -0.0672645 5295
0.005 0.815 -0.197262 2.29012 -0.0783527 -0.0783699 5325
0.005 0.82 -0.197262 2.42064 -0.0901323 -0.0901507 5382
0.005 0.825 -0.197262 2.5416 -0.102529 -0.10256 5403
0.005 0.83 -0.197262 2.65253 -0.115522 -0.11555 5471
0.005 0.835 -0.197262 2.753 -0.129024 -0.129068 5520
0.005 0.84 -0.197262 2.8426 -0.143012 -0.143062 5549
0.005 0.845 -0.197262 2.92098 -0.157421 -0.157476 5620
0.005 0.85 -0.197262 2.98783 -0.172195 -0.172252 5680
0.005 0.855 -0.197262 3.04289 -0.187275 -0.187334 5709
0.005 0.86 -0.197262 3.08595 -0.202596 -0.202661 5752
0.005 0.865 -0.197262 3.11682 -0.218102 -0.218173 5819
0.005 0.87 -0.197262 3.13539 -0.233736 -0.233809 5894
0.005 0.875 -0.197262 3.14159 -0.249426 -0.249507 5912
0.005 0.88 -0.197262 3.13539 -0.26512 -0.265204 6038
0.005 0.885 -0.197262 3.11682 -0.280751 -0.28084 6055
0.005 0.89 -0.197262 3.08595 -0.296258 -0.296352 6148
0.005 0.895 -0.197262 3.04289 -0.311579 -0.311679 6241
0.005 0.9 -0.197262 2.98783 -0.326655 -0.326761 6296
0.005 0.905 -0.197262 2.92098 -0.341425 -0.341538 6448
0.005 0.91 -0.197262 2.8426 -0.355835 -0.355951 6457
0.005 0.915 -0.197262 2.753 -0.369824 -0.369945 6540
0.005 0.92 -0.197262 2.65253 -0.383346 -0.383463 6729
0.005 0.925 -0.197262 2.5416 -0.396334 -0.396453 6822
0.005 0.93 -0.197262 2.42064 -0.408737 -0.408863 6920
0.005 0.935 -0.197262 2.29012 -0.420516 -0.420643 7022
0.005 0.94 -0.197262 2.15057 -0.43161 -0.431749 7198
0.005 0.945 -0.197262 2.00253 -0.441991 -0.442135 7350
0.005 0.95 -0.197262 1.84658 -0.451602 -0.451761 7523
0.005 0.955 -0.197262 1.68335 -0.460421 -0.460589 7701
0.005 0.96 -0.197262 1.51347 -0.468433 -0.468583 7918
0.005 0.965 -0.197262 1.33763 -0.475547 -0.475713 8078
0.005 0.97 -0.197262 1.1565 -0.481774 -0.481951 8446
0.005 0.975 -0.197262 0.970806 -0.48711 -0.487271 8807
0.005 0.98 -0.197262 0.781283 -0.491502 -0.491652 9130
0.005 0.985 -0.197262 0.588676 -0.494923 -0.495078 9535
0.005 0.99 -0.197262 0.393747 -0.497366 -0.497535 8463
0.005 0.995 -0.197262 0.197263 -0.498838 -0.499013 6904
0.005 1 -0.197262 6.73429e-07 -0.499331 -0.499507 5814
0.01 0 -0.393746 -0 -0.497853 -0.498029 7362
0.01 0.005 -0.393746 -0.197262 -0.497363 -0.497535 8463
0.01 0.01 -0.393746 -0.393746 -0.495891 -0.496057 7527
0.01 0.015 -0.393746 -0.588676 -0.493439 -0.4936 8694
0.01 0.02 -0.393746 -0.781282 -0.490021 -0.490174 9497
0.01 0.025 -0.393746 -0.970805 -0.485643 -0.485793 9140
0.01 0.03 -0.393746 -1.1565 -0.480301 -0.480473 8805
0.01 0.035 -0.393746 -1.33763 -0.47407 -0.474235 8445
0.01 0.04 -0.393746 -1.51347 -0.46696 -0.467105 8114
0.01 0.045 -0.393746 -1.68335 -0.45895 -0.459111 7914
0.01 0.05 -0.393746 -1.84658 -0.450125 -0.450283 7703
0.01 0.055 -0.393746 -2.00253 -0.440513 -0.440657 7548
0.01 0.06 -0.393746 -2.15057 -0.430128 -0.430271 7358
0.01 0.065 -0.393746 -2.29012 -0.41904 -0.419165 7161
0.01 0.07 -0.393746 -2.42064 -0.407263 -0.407385 7040
0.01 0.075 -0.393746 -2.5416 -0.394845 -0.394975 6922
0.01 0.08 -0.393746 -2.65253 -0.381869 -0.381985 6837
0.01 0.085 -0.393746 -2.753 -0.368347 -0.368467 6697
0.01 0.09 -0.393746 -2.8426 -0.35436 -0.354474 6558
0.01 0.095 -0.393746 -2.92098 -0.339953 -0.34006 6520
0.01 0.1 -0.393746 -2.98783 -0.32518 -0.325283 6402
0.01 0.105 -0.393746 -3.04289 -0.310103 -0.310201 6278
0.01 0.11 -0.393746 -3.08595 -0.29478 -0.294874 6285
0.01 0.115 -0.393746 -3.11682 -0.279273 -0.279362 6121
0.01 0.12 -0.393746 -3.13539 -0.263643 -0.263726 6134
0.01 0.125 -0.393746 -3.14159 -0.247949 -0.248029 6047
0.01 0.13 -0.393746 -3.13539 -0.232258 -0.232331 5908
0.01 0.135 -0.393746 -3.11682 -0.216628 -0.216695 5887
0.01 0.14 -0.393746 -3.08595 -0.201122 -0.201183 5826
0.01 0.145 -0.393746 -3.04289 -0.185798 -0.185856 5777
0.01 0.15 -0.393746 -2.98783 -0.170719 -0.170774 5745
0.01 0.155 -0.393746 -2.92098 -0.155945 -0.155998 5662
0.01 0.16 -0.393746 -2.8426 -0.141535 -0.141584 5629
0.01 0.165 -0.393746 -2.753 -0.127552 -0.12759 5582
0.01 0.17 -0.393746 -2.65253 -0.114044 -0.114072 5579
0.01 0.175 -0.393746 -2.5416 -0.101059 -0.101082 5518
0.01 0.18 -0.393746 -2.42064 -0.0886549 -0.0886727 5431
0.01 0.185 -0.393746 -2.29012 -0.0768753 -0.0768919 5419
0.01 0.19 -0.393746 -2.15057 -0.0657704 -0.0657865 5397
0.01 0.195 -0.393746 -2.00253 -0.0553872 -0.0554004 5330
0.01 0.2 -0.393746 -1.84658 -0.0457647 -0.0457744 5323
0.01 0.205 -0.393746 -1.68335 -0.0369272 -0.0369467 5306
0.01 0.21 -0.393746 -1.51347 -0.0289492 -0.028952 5209
0.01 0.215 -0.393746 -1.33763 -0.0218165 -0.0218219 5185
0.01 0.22 -0.393746 -1.1565 -0.0155753 -0.0155846 5147
0.01 0.225 -0.393746 -0.970806 -0.0102707 -0.0102646 5106
0.01 0.23 -0.393746 -0.781282 -0.00589924 -0.00588289 5089
0.01 0.235 -0.393746 -0.588676 -0.00246744 -0.00245687 5082
0.01 0.24 -0.393746 -0.393746 -1.39959e-05 -1.67915e-09 5046
0.01 0.245 -0.393746 -0.197262 0.00147481 0.00147801 5021
0.01 0.25 -0.393746 -1.68357e-07 0.00197337 0.00197132 5006
0.01 0.255 -0.393746 0.197262 0.00147242 0.00147801 5007
0.01 0.26 -0.393746 0.393746 -8.27387e-06 1.67915e-09 4958
0.01 0.265 -0.393746 0.588676 -0.00246509 -0.00245686 4955
0.01 0.27 -0.393746 0.781282 -0.00589846 -0.00588288 4925
0.01 0.275 -0.393746 0.970805 -0.0102674 -0.0102645 4879
0.01 0.28 -0.393746 1.1565 -0.0155779 -0.0155845 4815
0.01 0.285 -0.393746 1.33762 -0.0218205 -0.0218219 4859
0.01 0.29 -0.393746 1.51347 -0.0289469 -0.028952 4845
0.01 0.295 -0.393746 1.68335 -0.03693 -0.0369467 4829
0.01 0.3 -0.393746 1.84658 -0.0457647 -0.0457744 4778
0.01 0.305 -0.393746 2.00253 -0.0553935 -0.0554004 4795
0.01 0.31 -0.393746 2.15057 -0.0657766 -0.0657865 4795
0.01 0.315 -0.393746 2.29012 -0.0768789 -0.0768919 4733
0.01 0.32 -0.393746 2.42064 -0.0886561 -0.0886727 4727
0.01 0.325 -0.393746 2.5416 -0.10106 -0.101082 4665
0.01 0.33 -0.393746 2.65253 -0.114045 -0.114072 4686
0.01 0.335 -0.393746 2.753 -0.127552 -0.12759 4692
0.01 0.34 -0.393746 2.8426 -0.141538 -0.141584 4664
0.01 0.345 -0.393746 2.92098 -0.15595 -0.155998 4681
0.01 0.35 -0.393746 2.98783 -0.170724 -0.170774 4633
0.01 0.355 -0.393746 3.04289 -0.185801 -0.185856 4582
0.01 0.36 -0.393746 3.08595 -0.201122 -0.201183 4610
0.01 0.365 -0.393746 3.11682 -0.216629 -0.216695 4616
0.01 0.37 -0.393746 3.13539 -0.232258 -0.232331 4624
0.01 0.375 -0.393746 3.14159 -0.24795 -0.248029 4612
0.01 0.38 -0.393746 3.13539 -0.263643 -0.263726 4549
0.01 0.385 -0.393746 3.11682 -0.279274 -0.279362 4546
0.01 0.39 -0.393746 3.08595 -0.294781 -0.294874 4506
0.01 0.395 -0.393746 3.04289 -0.310104 -0.310201 4517
0.01 0.4 -0.393746 2.98783 -0.32518 -0.325283 4521
0.01 0.405 -0.393746 2.92098 -0.339952 -0.34006 4552
0.01 0.41 -0.393746 2.8426 -0.35436 -0.354473 4559
0.01 0.415 -0.393746 2.753 -0.36835 -0.368467 4534
0.01 0.42 -0.393746 2.65253 -0.38186 -0.381985 4519
0.01 0.425 -0.393746 2.5416 -0.39485 -0.394975 4529
0.01 0.43 -0.393746 2.42064 -0.407255 -0.407385 4517
0.01 0.435 -0.393746 2.29012 -0.419034 -0.419165 4504
0.01 0.44 -0.393746 2.15057 -0.430133 -0.430271 4467
0.01 0.445 -0.393746 2.00253 -0.440516 -0.440657 4477
0.01 0.45 -0.393746 1.84658 -0.450132 -0.450283 4486
0.01 0.455 -0.393746 1.68335 -0.458968 -0.459111 4457
0.01 0.46 -0.393746 1.51347 -0.466961 -0.467105 4441
0.01 0.465 -0.393746 1.33763 -0.474087 -0.474235 4431
0.01 0.47 -0.393746 1.1565 -0.480325 -0.480473 4452
0.01 0.475 -0.393746 0.970806 -0.485642 -0.485793 4457
0.01 0.48 -0.393746 0.781283 -0.490023 -0.490174 4492
0.01 0.485 -0.393746 0.588676 -0.493449 -0.4936 4476
0.01 0.49 -0.393746 0.393746 -0.495899 -0.496057 4411
0.01 0.495 -0.393746 0.197263 -0.497369 -0.497535 4430
0.01 0.5 -0.393746 3.36715e-07 -0.49786 -0.498029 4458
0.01 0.505 -0.393746 -0.197262 -0.497368 -0.497535 4430
0.01 0.51 -0.393746 -0.393746 -0.495898 -0.496057 4411
0.01 0.515 -0.393746 -0.588675 -0.493448 -0.4936 4474
0.01 0.52 -0.393746 -0.781282 -0.490025 -0.490174 4494
0.01 0.525 -0.393746 -0.970805 -0.485642 -0.485793 4457
0.01 0.53 -0.393746 -1.1565 -0.480325 -0.480473 4452
0.01 0.535 -0.393746 -1.33762 -0.47409 -0.474235 4431
0.01 0.54 -0.393746 -1.51347 -0.466962 -0.467105 4441
0.01 0.545 -0.393746 -1.68335 -0.458968 -0.459111 4457
0.01 0.55 -0.393746 -1.84658 -0.450132 -0.450283 4484
0.01 0.555 -0.393746 -2.00253 -0.440521 -0.440657 4479
0.01 0.56 -0.393746 -2.15057 -0.430137 -0.430271 4467
0.01 0.565 -0.393746 -2.29012 -0.419035 -0.419165 4504
0.01 0.57 -0.393746 -2.42064 -0.407255 -0.407385 4517
0.01 0.575 -0.393746 -2.5416 -0.39485 -0.394975 4529
0.01 0.58 -0.393746 -2.65253 -0.38186 -0.381985 4519
0.01 0.585 -0.393746 -2.753 -0.368346 -0.368467 4532
0.01 0.59 -0.393746 -2.8426 -0.35436 -0.354474 4561
0.01 0.595 -0.393746 -2.92098 -0.339953 -0.34006 4552
0.01 0.6 -0.393746 -2.98783 -0.325181 -0.325283 4521
0.01 0.605 -0.393746 -3.04289 -0.310104 -0.310201 4517
0.01 0.61 -0.393746 -3.08595 -0.294781 -0.294874 4506
0.01 0.615 -0.393746 -3.11682 -0.279274 -0.279362 4546
0.01 0.62 -0.393746 -3.13539 -0.263643 -0.263726 4547
0.01 0.625 -0.393746 -3.14159 -0.247951 -0.248029 4614
0.01 0.63 -0.393746 -3.13539 -0.232258 -0.232331 4624
0.01 0.635 -0.393746 -3.11682 -0.216628 -0.216695 4616
0.01 0.64 -0.393746 -3.08595 -0.201123 -0.201183 4610
0.01 0.645 -0.393746 -3.04289 -0.185802 -0.185856 4582
0.01 0.65 -0.393746 -2.98783 -0.170725 -0.170774 4633
0.01 0.655 -0.393746 -2.92098 -0.155949 -0.155998 4679
0.01 0.66 -0.393746 -2.8426 -0.141539 -0.141584 4666
0.01 0.665 -0.393746 -2.753 -0.127552 -0.12759 4692
0.01 0.67 -0.393746 -2.65253 -0.114044 -0.114072 4686
0.01 0.675 -0.393746 -2.5416 -0.101058 -0.101082 4665
0.01 0.68 -0.393746 -2.42064 -0.0886543 -0.0886727 4727
0.01 0.685 -0.393746 -2.29012 -0.0768781 -0.0768919 4733
0.01 0.69 -0.393746 -2.15057 -0.0657757 -0.0657865 4793
0.01 0.695 -0.393746 -2.00253 -0.0553922 -0.0554004 4797
0.01 0.7 -0.393746 -1.84658 -0.045764 -0.0457744 4778
0.01 0.705 -0.393746 -1.68335 -0.0369345 -0.0369467 4829
0.01 0.71 -0.393746 -1.51347 -0.0289507 -0.028952 4845
0.01 0.715 -0.393746 -1.33763 -0.0218176 -0.0218219 4859
0.01 0.72 -0.393746 -1.1565 -0.0155769 -0.0155846 4815
0.01 0.725 -0.393746 -0.970806 -0.0102684 -0.0102646 4877
0.01 0.73 -0.393746 -0.781283 -0.00589572 -0.00588289 4927
0.01 0.735 -0.393746 -0.588676 -0.0024675 -0.00245687 4955
0.01 0.74 -0.393746 -0.393746 -9.52557e-06 -5.03744e-09 4958
0.01 0.745 -0.393746 -0.197263 0.00148679 0.001478 5007
0.01 0.75 -0.393746 -5.05072e-07 0.00196869 0.00197132 5006
0.01 0.755 -0.393746 0.197262 0.00146542 0.00147801 5021
0.01 0.76 -0.393746 0.393745 -1.10157e-05 5.03743e-09 5044
0.01 0.765 -0.393746 0.588675 -0.0024684 -0.00245686 5084
0.01 0.77 -0.393746 0.781282 -0.00589712 -0.00588288 5089
0.01 0.775 -0.393746 0.970805 -0.0102692 -0.0102645 5106
0.01 0.78 -0.393746 1.1565 -0.0155756 -0.0155845 5147
0.01 0.785 -0.393746 1.33762 -0.0218154 -0.0218219 5185
0.01 0.79 -0.393746 1.51347 -0.0289482 -0.028952 5209
0.01 0.795 -0.393746 1.68335 -0.0369271 -0.0369467 5304
0.01 0.8 -0.393746 1.84658 -0.0457655 -0.0457744 5325
0.01 0.805 -0.393746 2.00253 -0.0553881 -0.0554003 5330
0.01 0.81 -0.393746 2.15057 -0.0657706 -0.0657865 5397
0.01 0.815 -0.393746 2.29012 -0.0768766 -0.0768919 5419
0.01 0.82 -0.393746 2.42064 -0.0886557 -0.0886726 5431
0.01 0.825 -0.393746 2.5416 -0.101059 -0.101082 5519
0.01 0.83 -0.393746 2.65253 -0.114047 -0.114072 5577
0.01 0.835 -0.393746 2.753 -0.127552 -0.12759 5584
0.01 0.84 -0.393746 2.8426 -0.141535 -0.141584 5629
0.01 0.845 -0.393746 2.92098 -0.155945 -0.155997 5662
0.01 0.85 -0.393746 2.98783 -0.170719 -0.170774 5745
0.01 0.855 -0.393746 3.04289 -0.185802 -0.185856 5777
0.01 0.86 -0.393746 3.08595 -0.201124 -0.201183 5826
0.01 0.865 -0.393746 3.11682 -0.216629 -0.216695 5885
0.01 0.87 -0.393746 3.13539 -0.232258 -0.232331 5910
0.01 0.875 -0.393746 3.14159 -0.247949 -0.248029 6047
0.01 0.88 -0.393746 3.13539 -0.263643 -0.263726 6134
0.01 0.885 -0.393746 3.11682 -0.279273 -0.279362 6121
0.01 0.89 -0.393746 3.08595 -0.29478 -0.294874 6285