TITLE="Pressure integrated from Omni2D"
VARIABLES = "X","Y","Dudt","DvDt","Pcal","Preal","Count"
ZONE I=64 J=64
0 0 -0.0413143 -0.0721576 1.0178 1 0
0 1 -0.0577934 -0.0191716 1.09408 1.05029 0
0 2 -0.066104 -0.0680506 1.1503 1.10298 0
0 3 -0.10283 -0.0561784 1.18803 1.15804 0
0 4 -0.0690641 -0.0414946 1.23003 1.21542 0
0 5 -0.0395015 -0.0851009 1.30487 1.27504 0
0 6 -0.0764988 -0.0818089 1.34211 1.33681 0
0 7 -0.0409741 -0.0882398 1.38834 1.40058 0
0 8 -0.0508153 -0.0789901 1.45623 1.46621 0
0 9 -0.0704449 -0.0423314 1.53675 1.5335 0
0 10 -0.117238 -0.0543303 1.60648 1.60223 0
0 11 -0.0914482 -0.0532481 1.70718 1.67214 0
0 12 -0.106133 -0.0227753 1.75301 1.74293 0
0 13 -0.0991464 -0.10667 1.81366 1.8143 0
0 14 -0.0590754 -0.0842343 1.94708 1.88588 0
0 15 -0.105093 -0.0465719 2.02387 1.95729 0
0 16 -0.111156 -0.0886708 2.08024 2.02812 0
0 17 -0.0600069 -0.077531 2.1672 2.09793 0
0 18 -0.0755611 -0.0204583 2.228 2.16628 0
0 19 -0.0420702 -0.0855047 2.25399 2.23269 0
0 20 -0.11058 -0.0383067 2.28084 2.29669 0
0 21 -0.033063 -0.0617149 2.34101 2.3578 0
0 22 -0.0847568 -0.0900515 2.41022 2.41554 0
0 23 -0.0145524 -0.0489433 2.48555 2.46943 0
0 24 -0.00587791 -0.0201297 2.55135 2.51904 0
0 25 -0.00771725 -0.0532404 2.60197 2.56394 0
0 26 0.00940645 -0.00906579 2.67659 2.60372 0
0 27 0.016084 -0.030632 2.70313 2.63803 0
0 28 -0.0494588 -0.0305802 2.71564 2.66655 0
0 29 -0.0644531 -0.0287119 2.7368 2.68902 0
0 30 0.0317041 0.000823021 2.76451 2.70522 0
0 31 0.038287 -0.0186763 2.75177 2.71501 0
0 32 0.0415848 0.0177956 2.73542 2.71828 0
0 33 0.000252742 -0.00911463 2.70657 2.71501 0
0 34 -0.00389085 -0.0350656 2.71104 2.70522 0
0 35 0.066438 -0.0069542 2.71141 2.68902 0
0 36 0.0472801 -0.0158009 2.6527 2.66655 0
0 37 0.0549823 -0.0152144 2.64783 2.63803 0
0 38 0.0262109 0.0756338 2.61222 2.60372 0
0 39 0.0102961 0.0671462 2.56465 2.56394 0
0 40 0.0206956 0.092172 2.4757 2.51904 0
0 41 0.0357189 0.00945157 2.41301 2.46943 0
0 42 0.0828163 0.0586082 2.38494 2.41554 0
0 43 0.0578042 0.0420746 2.3305 2.3578 0
0 44 0.0993162 0.107665 2.28369 2.29669 0
0 45 0.0506544 0.0154391 2.21575 2.23269 0
0 46 0.0237818 0.0364268 2.16302 2.16628 0
0 47 0.0294011 0.0379526 2.09317 2.09793 0
0 48 0.0868627 0.0563075 2.03049 2.02812 0
0 49 0.0365283 0.0319373 1.95526 1.95729 0
0 50 0.0493362 0.0496199 1.88292 1.88588 0
0 51 0.0396523 0.0775307 1.80835 1.8143 0
0 52 0.105774 0.0361263 1.7803 1.74293 0
0 53 0.0890258 0.101948 1.72977 1.67214 0
0 54 0.104416 0.0881389 1.69008 1.60223 0
0 55 0.107807 0.0362157 1.63012 1.5335 0
0 56 0.0247489 0.0929454 1.5497 1.46621 0
0 57 0.112738 0.0577625 1.48494 1.40058 0
0 58 0.0133306 0.0313025 1.40212 1.33681 0
0 59 0.0729735 0.0505028 1.3402 1.27504 0
0 60 0.0800412 0.0465582 1.29001 1.21542 0
0 61 0.0385546 0.0451237 1.20978 1.15804 0
0 62 0.0660773 0.0518747 1.15092 1.10298 0
0 63 0.0270858 0.0325776 1.09454 1.05029 0
1 0 -0.0827847 -0.00865985 1.09275 1.05029 0
1 1 -0.0345348 -0.0999319 1.13928 1.10298 0
1 2 -0.0307316 -0.0809159 1.21571 1.15804 0
1 3 -0.0309739 -0.0146278 1.25627 1.21542 0
1 4 -0.0873133 -0.0573178 1.299 1.27504 0
1 5 -0.0247448 -0.0624231 1.36099 1.33681 0
1 6 -0.0232719 -0.0337335 1.40642 1.40058 0
1 7 -0.0639494 -0.0794972 1.45255 1.46621 0
1 8 -0.0929681 -0.0655913 1.52024 1.5335 0
1 9 -0.0456993 -0.0278405 1.58953 1.60223 0
1 10 -0.075662 -0.115862 1.6805 1.67214 0
1 11 -0.0499628 -0.0402171 1.77189 1.74293 0
1 12 -0.0437261 -0.0535744 1.82651 1.8143 0
1 13 -0.0752331 -0.121137 1.89724 1.88588 0
1 14 -0.0354575 -0.113136 2.00669 1.95729 0
1 15 -0.0562303 -0.0347408 2.1038 2.02812 0
1 16 -0.0598148 -0.0225594 2.15886 2.09793 0
1 17 -0.0702919 -0.0977531 2.22377 2.16628 0
1 18 -0.0368776 -0.0390101 2.28819 2.23269 0
1 19 -0.0775254 -0.0872235 2.32284 2.29669 0
1 20 -0.0790548 -0.0207434 2.36667 2.3578 0
1 21 -0.0784505 -0.0430238 2.3994 2.41554 0
1 22 -0.021881 -0.0758222 2.46131 2.46943 0
1 23 -0.0619859 -0.0927856 2.52226 2.51904 0
1 24 -0.0384183 -0.0831918 2.58934 2.56394 0
1 25 -0.0866491 -0.0358652 2.64245 2.60372 0
1 26 -0.00500332 -0.0165094 2.66913 2.63803 0
1 27 0.007513 -0.0410891 2.69142 2.66655 0
1 28 0.00917789 -0.064491 2.72548 2.68902 0
1 29 -0.0106229 -0.0430772 2.76187 2.70522 0
1 30 0.00395116 0.0310599 2.74979 2.71501 0
1 31 -0.0457041 -0.0490396 2.73407 2.71828 0
1 32 -0.00154463 0.0154169 2.72056 2.71501 0
1 33 -0.00639048 -0.00079709 2.70725 2.70522 0
1 34 0.0136128 0.00783083 2.69219 2.68902 0
1 35 0.036366 0.0162471 2.67256 2.66655 0
1 36 -0.0171345 0.0462275 2.62067 2.63803 0
1 37 0.0777282 0.00345842 2.58405 2.60372 0
1 38 0.0566168 0.0466175 2.55729 2.56394 0
1 39 0.092185 0.0474761 2.51232 2.51904 0
1 40 0.0292751 0.0500751 2.44211 2.46943 0
1 41 0.0409196 0.0615953 2.36165 2.41554 0
1 42 0.0609201 0.0312067 2.32397 2.3578 0
1 43 0.0422272 0.0281564 2.28282 2.29669 0
1 44 0.0423318 0.106315 2.22513 2.23269 0
1 45 0.073589 0.112109 2.15572 2.16628 0
1 46 0.114183 0.0961956 2.09028 2.09793 0
1 47 0.0758428 0.0643829 2.01768 2.02812 0
1 48 0.0590614 0.0227098 1.96158 1.95729 0
1 49 0.0624685 0.0868814 1.90203 1.88588 0
1 50 0.0941963 0.10644 1.82112 1.8143 0
1 51 0.0830355 0.0926797 1.76426 1.74293 0
1 52 0.081801 0.0966749 1.70479 1.67214 0
1 53 0.0814846 0.071086 1.64108 1.60223 0
1 54 0.101182 0.022288 1.5974 1.5335 0
1 55 0.0438805 0.0811526 1.54239 1.46621 0
1 56 0.111975 0.0645565 1.45817 1.40058 0
1 57 0.101264 0.0145249 1.38774 1.33681 0
1 58 0.0928058 0.0708443 1.3364 1.27504 0
1 59 0.0605712 0.0585443 1.27347 1.21542 0
1 60 0.0899209 0.0752828 1.20965 1.15804 0
1 61 0.0504769 0.0383202 1.15401 1.10298 0
1 62 0.0181651 0.0449673 1.11959 1.05029 0
1 63 0.00718928 0.0685065 1.08336 1 0
2 0 -0.0159635 -0.0730019 1.14012 1.10298 0
2 1 -0.102735 -0.0477915 1.20471 1.15804 0
2 2 -0.0093609 -0.0647549 1.26026 1.21542 0
2 3 -0.0740815 -0.071274 1.31036 1.27504 0
2 4 -0.0865593 -0.0782136 1.37405 1.33681 0
2 5 -0.113496 -0.0320675 1.42844 1.40058 0
2 6 -0.0626919 -0.0446234 1.46784 1.46621 0
2 7 -0.0685286 -0.112284 1.52906 1.5335 0
2 8 -0.115674 -0.0927795 1.61483 1.60223 0
2 9 -0.10555 -0.0505218 1.67125 1.67214 0
2 10 -0.0837744 -0.111007 1.75 1.74293 0
2 11 -0.105963 -0.0750758 1.83455 1.8143 0
2 12 -0.048838 -0.0991144 1.89776 1.88588 0
2 13 -0.0950558 -0.0822397 1.97802 1.95729 0
2 14 -0.0810745 -0.0917516 2.07114 2.02812 0
2 15 -0.0404368 -0.0368485 2.13894 2.09793 0
2 16 -0.0265086 -0.0318062 2.20333 2.16628 0
2 17 -0.067684 -0.10207 2.28366 2.23269 0
2 18 -0.0226951 -0.0536452 2.34253 2.29669 0
2 19 -0.0284324 -0.0105923 2.37207 2.3578 0
2 20 -0.0691151 -0.0430283 2.41576 2.41554 0
2 21 -0.0975393 -0.064774 2.47192 2.46943 0
2 22 -0.0741961 -0.0094759 2.51241 2.51904 0
2 23 -0.0525791 -0.083542 2.58129 2.56394 0
2 24 -0.0716586 0.0110303 2.65237 2.60372 0
2 25 -0.0312882 0.0137963 2.69482 2.63803 0
2 26 -0.0454203 0.00890046 2.7 2.66655 0
2 27 -0.0159195 0.0234594 2.71563 2.68902 0
2 28 -0.029595 -0.0078162 2.73202 2.70522 0
2 29 0.0357403 0.011924 2.74633 2.71501 0
2 30 0.0368585 -0.0196339 2.74438 2.71828 0
2 31 0.0197917 0.0149292 2.72654 2.71501 0
2 32 -0.00249464 -0.0234353 2.71566 2.70522 0
2 33 0.0336656 0.034645 2.70375 2.68902 0
2 34 0.0025706 0.0162467 2.66621 2.66655 0
2 35 0.0754829 0.066632 2.63006 2.63803 0
2 36 0.0152278 0.058789 2.58223 2.60372 0
2 37 -0.00271821 0.00241701 2.54208 2.56394 0
2 38 0.0149985 0.0743887 2.50387 2.51904 0
2 39 0.0489754 0.0542664 2.44894 2.46943 0
2 40 0.0834099 0.0961315 2.37901 2.41554 0
2 41 0.0113091 0.0193349 2.32201 2.3578 0
2 42 0.111867 0.061964 2.27932 2.29669 0
2 43 0.0471178 0.044616 2.22618 2.23269 0
2 44 0.0976056 0.059826 2.15157 2.16628 0
2 45 0.0996637 0.063496 2.08333 2.09793 0
2 46 0.0941756 0.0836374 2.01526 2.02812 0
2 47 0.0698336 0.0707939 1.93932 1.95729 0
2 48 0.111987 0.0451243 1.877 1.88588 0
2 49 0.082003 0.0733521 1.82335 1.8143 0
2 50 0.0773961 0.111269 1.74486 1.74293 0
2 51 0.109892 0.0233991 1.69304 1.67214 0
2 52 0.0354428 0.0477405 1.6642 1.60223 0
2 53 0.0332213 0.100277 1.58085 1.5335 0
2 54 0.0983147 0.0571845 1.50313 1.46621 0
2 55 0.0801941 0.0248715 1.46453 1.40058 0
2 56 0.0157077 0.0739657 1.39683 1.33681 0
2 57 0.0153343 0.106251 1.31885 1.27504 0
2 58 0.0395416 0.0143099 1.24885 1.21542 0
2 59 0.0426092 0.00840385 1.21064 1.15804 0
2 60 0.0159529 0.0939463 1.16637 1.10298 0
2 61 0.0255418 0.0253448 1.11851 1.05029 0
2 62 0.0125343 0.00106016 1.1 1 0
2 63 0.0527476 0.0707664 1.05312 0.952117 0
3 0 -0.0587376 -0.0792811 1.18148 1.15804 0
3 1 -0.0686229 -0.0812015 1.27019 1.21542 0
3 2 -0.0922908 -0.0150474 1.33225 1.27504 0
3 3 -0.0860636 -0.0464205 1.38276 1.33681 0
3 4 -0.0676098 -0.0204072 1.4388 1.40058 0
3 5 -0.0887089 -0.112126 1.50549 1.46621 0
3 6 -0.0855312 -0.0735726 1.56936 1.5335 0
3 7 -0.0869362 -0.0967725 1.63087 1.60223 0
3 8 -0.116267 -0.0622684 1.71517 1.67214 0
3 9 -0.110165 -0.0552286 1.78644 1.74293 0
3 10 -0.0423668 -0.109025 1.84459 1.8143 0
3 11 -0.0288973 -0.0562732 1.90278 1.88588 0
3 12 -0.0630584 -0.102125 1.9634 1.95729 0
3 13 -0.0985939 -0.0400577 2.04978 2.02812 0
3 14 -0.0210211 -0.117987 2.13274 2.09793 0
3 15 -0.115126 -0.0219754 2.19758 2.16628 0
3 16 -0.0404128 -0.0554531 2.24945 2.23269 0
3 17 -0.0353786 -0.0247285 2.32695 2.29669 0
3 18 -0.0258748 -0.024998 2.37265 2.3578 0
3 19 -0.084906 -0.0400145 2.42026 2.41554 0
3 20 -0.0445222 -0.00651486 2.4621 2.46943 0
3 21 -0.0130362 -0.0959296 2.52115 2.51904 0
3 22 -0.0800091 -6.50704e-05 2.57472 2.56394 0
3 23 -0.0757129 -0.0309527 2.62981 2.60372 0
3 24 -0.0406105 -0.0658102 2.69828 2.63803 0
3 25 0.00804455 -0.00739583 2.72409 2.66655 0
3 26 -0.00772437 -0.0409982 2.72424 2.68902 0
3 27 0.0314609 -0.0404824 2.73201 2.70522 0
3 28 0.0154038 0.0159575 2.73663 2.71501 0
3 29 0.0281545 -0.00813784 2.72454 2.71828 0
3 30 0.0338791 -0.0171069 2.72978 2.71501 0
3 31 -0.0336792 0.0575649 2.72095 2.70522 0
3 32 0.00414199 0.0318098 2.69909 2.68902 0
3 33 0.0501655 0.0434247 2.67314 2.66655 0
3 34 0.0569604 0.0587698 2.61109 2.63803 0
3 35 0.076117 0.0237442 2.56236 2.60372 0
3 36 -0.00100981 0.0154585 2.55715 2.56394 0
3 37 0.00393685 0.0605052 2.51975 2.51904 0
3 38 0.00996541 0.0129559 2.45865 2.46943 0
3 39 0.077694 0.0282495 2.39863 2.41554 0
3 40 0.0181674 0.0878153 2.33165 2.3578 0
3 41 0.062415 0.024818 2.29101 2.29669 0
3 42 0.0344653 0.0932474 2.23575 2.23269 0
3 43 0.0459075 0.0702039 2.17352 2.16628 0
3 44 0.0210733 0.0945705 2.08964 2.09793 0
3 45 0.0633363 0.067863 2.01698 2.02812 0
3 46 0.0498359 0.0697477 1.97235 1.95729 0
3 47 0.0271277 0.114158 1.8946 1.88588 0
3 48 0.0337856 0.0837568 1.81488 1.8143 0
3 49 0.0498167 0.0836145 1.76162 1.74293 0
3 50 0.0225155 0.0846421 1.68907 1.67214 0
3 51 0.0463122 0.0296207 1.64131 1.60223 0
3 52 0.093165 0.0742359 1.61094 1.5335 0
3 53 0.0320061 0.108573 1.51478 1.46621 0
3 54 0.0651844 0.0564319 1.42638 1.40058 0
3 55 0.051428 0.0256793 1.39497 1.33681 0
3 56 0.0651926 0.0741424 1.33709 1.27504 0
3 57 0.0921565 0.0124158 1.27359 1.21542 0
3 58 0.00834827 0.084098 1.22581 1.15804 0
3 59 0.00694187 0.0452791 1.17241 1.10298 0
3 60 0.0771577 0.0339837 1.14422 1.05029 0
3 61 0.00640859 0.0463105 1.09362 1 0
3 62 0.0753186 0.0211046 1.03869 0.952117 0
3 63 0.0440531 0.0797803 0.977924 0.906633 0
4 0 -0.0281032 -0.0683378 1.22569 1.21542 0
4 1 -0.0357637 -0.0641306 1.29832 1.27504 0
4 2 -0.0278181 -0.0145975 1.37183 1.33681 0
4 3 -0.0190232 -0.0261541 1.42159 1.40058 0
4 4 -0.0759128 -0.047815 1.48666 1.46621 0
4 5 -0.110447 -0.0359882 1.58601 1.5335 0
4 6 -0.107228 -0.0338175 1.65703 1.60223 0
4 7 -0.0319623 -0.0538002 1.71049 1.67214 0
4 8 -0.0845148 -0.0548063 1.78102 1.74293 0
4 9 -0.045045 -0.120999 1.8764 1.8143 0
4 10 -0.0825991 -0.0224938 1.93851 1.88588 0
4 11 -0.0322828 -0.0551935 1.95651 1.95729 0
4 12 -0.1154 -0.1045 2.027 2.02812 0
4 13 -0.109489 -0.0889735 2.13517 2.09793 0
4 14 -0.0916097 -0.0873898 2.21392 2.16628 0
4 15 -0.0598973 -0.030366 2.26915 2.23269 0
4 16 -0.0959848 -0.034593 2.30145 2.29669 0
4 17 -0.0190277 -0.0456175 2.34841 2.3578 0
4 18 -0.0372412 -0.0373948 2.40661 2.41554 0
4 19 -0.0157972 -0.0265971 2.4598 2.46943 0
4 20 -0.0346985 -0.0728642 2.50388 2.51904 0
4 21 -0.020002 -0.0608188 2.55524 2.56394 0
4 22 -0.0628346 -0.0855732 2.62027 2.60372 0
4 23 -0.0470484 -0.0684527 2.68337 2.63803 0
4 24 -0.00469215 -0.0730418 2.73304 2.66655 0
4 25 -0.0190431 0.0251034 2.74313 2.68902 0
4 26 0.00107605 -0.0187487 2.735 2.70522 0
4 27 -0.00743149 0.0228342 2.7281 2.71501 0
4 28 0.00542506 -0.0210047 2.72472 2.71828 0
4 29 -0.0197191 -0.0429394 2.73471 2.71501 0
4 30 -0.000418961 0.0624593 2.72585 2.70522 0
4 31 0.0645571 0.0285099 2.69506 2.68902 0
4 32 -0.0111381 0.0142641 2.67431 2.66655 0
4 33 0.0540036 0.0636737 2.63489 2.63803 0
4 34 -0.00410191 0.0849629 2.57149 2.60372 0
4 35 0.00218088 0.0413392 2.52335 2.56394 0
4 36 0.0804053 0.0656326 2.51359 2.51904 0
4 37 0.0851531 0.0927448 2.45839 2.46943 0
4 38 0.0898078 0.0251623 2.39148 2.41554 0
4 39 0.0323892 0.0127021 2.3392 2.3578 0
4 40 0.035656 0.086122 2.28089 2.29669 0
4 41 0.069815 0.016287 2.231 2.23269 0
4 42 0.0736924 0.0509471 2.17948 2.16628 0
4 43 0.0721859 0.0443044 2.11237 2.09793 0
4 44 0.0403381 0.0376127 2.04842 2.02812 0
4 45 0.0323063 0.0497021 1.9812 1.95729 0
4 46 0.120782 0.0565113 1.92726 1.88588 0
4 47 0.0642685 0.10916 1.85602 1.8143 0
4 48 0.102391 0.0972864 1.765 1.74293 0
4 49 0.106144 0.0370181 1.71076 1.67214 0
4 50 0.0283692 0.0606772 1.65165 1.60223 0
4 51 0.0603304 0.0229842 1.58999 1.5335 0
4 52 0.0450014 0.0207511 1.51934 1.46621 0
4 53 0.0442117 0.0692388 1.44153 1.40058 0
4 54 0.0973092 0.0511407 1.36931 1.33681 0
4 55 0.0951307 0.0451816 1.33572 1.27504 0
4 56 0.048466 0.106051 1.26733 1.21542 0
4 57 0.0425038 0.0354064 1.21339 1.15804 0
4 58 0.0481203 0.0308482 1.19434 1.10298 0
4 59 0.0366807 0.0362306 1.14387 1.05029 0
4 60 0.0700248 0.043136 1.09794 1 0
4 61 0.0214911 0.0428436 1.05631 0.952117 0
4 62 0.0110912 0.0865052 0.983905 0.906633 0
4 63 0.0677616 0.0844497 0.922353 0.863527 0
5 0 -0.110068 -0.0951138 1.27179 1.27504 0
5 1 -0.062412 -0.0346134 1.32982 1.33681 0
5 2 -0.0262613 -0.0770527 1.38011 1.40058 0
5 3 -0.0294597 -0.111009 1.46145 1.46621 0
5 4 -0.105948 -0.0257103 1.53802 1.5335 0
5 5 -0.0661066 -0.113399 1.63455 1.60223 0
5 6 -0.0519345 -0.026568 1.72977 1.67214 0
5 7 -0.0927625 -0.0735286 1.78831 1.74293 0
5 8 -0.111418 -0.0554451 1.85803 1.8143 0
5 9 -0.116105 -0.0511374 1.9376 1.88588 0
5 10 -0.0451905 -0.0963821 2.02152 1.95729 0
5 11 -0.0725328 -0.0301848 2.05705 2.02812 0
5 12 -0.0871243 -0.113862 2.11566 2.09793 0
5 13 -0.0856 -0.0816776 2.21515 2.16628 0
5 14 -0.0560772 -0.0266354 2.2835 2.23269 0
5 15 -0.0962696 -0.019931 2.32598 2.29669 0
5 16 -0.0948268 -0.101489 2.37642 2.3578 0
5 17 -0.0648741 -0.0649502 2.40886 2.41554 0
5 18 -0.0389755 -0.0832371 2.46194 2.46943 0
5 19 -0.083678 -0.0727969 2.5277 2.51904 0
5 20 -0.0879717 -0.0273746 2.57837 2.56394 0
5 21 -0.0666559 -0.0086764 2.60943 2.60372 0
5 22 -0.0422507 -0.0329687 2.66778 2.63803 0
5 23 -0.0255646 0.0240867 2.70178 2.66655 0
5 24 0.018916 0.00312021 2.7187 2.68902 0
5 25 0.0304206 -0.0245021 2.7322 2.70522 0
5 26 -0.00377723 0.0400745 2.73331 2.71501 0
5 27 -0.037951 -0.0429701 2.74565 2.71828 0
5 28 0.00775692 0.0465785 2.74369 2.71501 0
5 29 0.0278947 0.030905 2.72372 2.70522 0
5 30 0.0301092 0.0626211 2.70846 2.68902 0
5 31 -0.00368768 0.0332146 2.6726 2.66655 0
5 32 0.0561641 0.075543 2.63622 2.63803 0
5 33 0.0827884 0.0508186 2.5727 2.60372 0
5 34 0.0387538 0.0226105 2.54446 2.56394 0
5 35 0.00732189 0.0529066 2.50034 2.51904 0
5 36 0.099761 0.00714744 2.44402 2.46943 0
5 37 0.0554481 0.0411559 2.39547 2.41554 0
5 38 0.036028 0.0702627 2.3377 2.3578 0
5 39 0.0553156 0.104006 2.27415 2.29669 0
5 40 0.0400488 0.0355909 2.21355 2.23269 0
5 41 0.114308 0.0743223 2.16921 2.16628 0
5 42 0.0385459 0.0557403 2.12173 2.09793 0
5 43 0.0440319 0.119282 2.05378 2.02812 0
5 44 0.0473 0.0482908 1.98203 1.95729 0
5 45 0.101588 0.0599701 1.92659 1.88588 0
5 46 0.0954565 0.0867528 1.84469 1.8143 0
5 47 0.102719 0.114927 1.75573 1.74293 0
5 48 0.0886272 0.0250396 1.69198 1.67214 0
5 49 0.106736 0.0727631 1.64159 1.60223 0
5 50 0.0880305 0.078501 1.57639 1.5335 0
5 51 0.115128 0.0343629 1.51133 1.46621 0
5 52 0.0178846 0.0882825 1.44318 1.40058 0
5 53 0.0638819 0.0383281 1.36834 1.33681 0
5 54 0.0543141 0.0400425 1.29693 1.27504 0
5 55 0.0748485 0.017182 1.24478 1.21542 0
5 56 0.013051 0.0230488 1.21437 1.15804 0
5 57 0.0533612 0.0147512 1.17271 1.10298 0
5 58 0.0942402 0.0388952 1.12698 1.05029 0
5 59 0.0536014 0.0164126 1.08176 1 0
5 60 0.0820336 0.079403 1.02996 0.952117 0
5 61 0.0645932 -0.00451899 0.976938 0.906633 0
5 62 0.0244648 -0.00517203 0.94186 0.863527 0
5 63 0.0862912 0.0476495 0.89725 0.82276 0
6 0 -0.0764752 -0.0960628 1.37642 1.33681 0
6 1 -0.0961406 -0.0378052 1.41523 1.40058 0
6 2 -0.0958368 -0.111568 1.45762 1.46621 0
6 3 -0.104919 -0.0303132 1.52829 1.5335 0
6 4 -0.0260038 -0.105825 1.60078 1.60223 0
6 5 -0.0667935 -0.0616479 1.67328 1.67214 0
6 6 -0.080094 -0.054805 1.76578 1.74293 0
6 7 -0.0236469 -0.0835326 1.86818 1.8143 0
6 8 -0.0820877 -0.0271681 1.93664 1.88588 0
6 9 -0.0933789 -0.0988822 2.018 1.95729 0
6 10 -0.0907151 -0.0204781 2.09228 2.02812 0
6 11 -0.0451853 -0.0451267 2.14253 2.09793 0
6 12 -0.0585797 -0.0510869 2.19171 2.16628 0
6 13 -0.0175445 -0.106759 2.2532 2.23269 0
6 14 -0.0265285 -0.0812944 2.32602 2.29669 0
6 15 -0.0294967 -0.0980066 2.38736 2.3578 0
6 16 -0.0405104 -0.0840332 2.44597 2.41554 0
6 17 -0.0673945 -0.0213242 2.48832 2.46943 0
6 18 -0.0136592 -0.066444 2.50878 2.51904 0
6 19 -0.0151066 -0.0848479 2.57583 2.56394 0
6 20 -0.0216268 -0.00573839 2.64346 2.60372 0
6 21 -0.0632069 -0.0432485 2.66797 2.63803 0
6 22 0.0034905 -0.0473815 2.6991 2.66655 0
6 23 -0.0463131 -0.00216972 2.71229 2.68902 0
6 24 0.0225567 0.00644893 2.71663 2.70522 0
6 25 -0.010323 0.0247439 2.71743 2.71501 0
6 26 0.00074085 -0.0485451 2.73452 2.71828 0
6 27 0.00929801 0.0477981 2.74664 2.71501 0
6 28 0.0253828 0.0126478 2.71957 2.70522 0
6 29 -0.0185077 0.0589824 2.69216 2.68902 0
6 30 0.0413447 -0.00797571 2.6766 2.66655 0
6 31 0.0703237 0.0560979 2.64619 2.63803 0
6 32 0.0692703 0.0513816 2.58401 2.60372 0
6 33 0.00126 0.0641313 2.5277 2.56394 0
6 34 0.0467852 0.0129692 2.49874 2.51904 0
6 35 0.07233 0.0747978 2.45287 2.46943 0
6 36 0.0556785 0.0140903 2.38223 2.41554 0
6 37 0.0444089 0.0287487 2.34111 2.3578 0
6 38 0.0295138 0.0540864 2.29478 2.29669 0
6 39 0.0480135 0.0979415 2.22442 2.23269 0
6 40 0.0393896 0.023755 2.16656 2.16628 0
6 41 0.0544217 0.0816509 2.1062 2.09793 0
6 42 0.023606 0.0206596 2.06393 2.02812 0
6 43 0.101656 0.11797 1.99339 1.95729 0
6 44 0.103131 0.0978413 1.90566 1.88588 0
6 45 0.0975602 0.04378 1.84482 1.8143 0
6 46 0.058535 0.113538 1.76944 1.74293 0
6 47 0.0414251 0.0984915 1.68452 1.67214 0
6 48 0.112251 0.0663162 1.6291 1.60223 0
6 49 0.0348133 0.0576431 1.5673 1.5335 0
6 50 0.056446 0.0696961 1.50901 1.46621 0
6 51 0.0619987 0.114528 1.43599 1.40058 0
6 52 0.0754263 0.0656591 1.37798 1.33681 0
6 53 0.10592 0.0868109 1.31993 1.27504 0
6 54 0.012112 0.104235 1.25103 1.21542 0
6 55 0.0125385 0.00964575 1.18281 1.15804 0
6 56 0.0884743 0.0612666 1.15612 1.10298 0
6 57 0.0794803 0.0691078 1.10261 1.05029 0
6 58 0.0373697 0.00891132 1.05694 1 0
6 59 0.00728048 0.0042619 1.02279 0.952117 0
6 60 0.0685894 0.058775 0.969031 0.906633 0
6 61 0.00707222 0.0777729 0.917369 0.863527 0
6 62 0.0420993 0.0132075 0.87566 0.82276 0
6 63 0.025413 0.0319784 0.833285 0.784287 0
7 0 -0.0258139 -0.0574743 1.46316 1.40058 0
7 1 -0.109076 -0.0270919 1.51759 1.46621 0
7 2 -0.117426 -0.0245336 1.55829 1.5335 0
7 3 -0.0894272 -0.0619438 1.60878 1.60223 0
7 4 -0.0507255 -0.107357 1.66755 1.67214 0
7 5 -0.110296 -0.0557798 1.7415 1.74293 0
7 6 -0.106412 -0.115314 1.82833 1.8143 0
7 7 -0.0286004 -0.0662905 1.9132 1.88588 0
7 8 -0.0240212 -0.102729 1.99036 1.95729 0
7 9 -0.0414464 -0.0615018 2.06572 2.02812 0
7 10 -0.0311429 -0.0340174 2.12804 2.09793 0
7 11 -0.0436431 -0.111693 2.20201 2.16628 0
7 12 -0.0291308 -0.0382249 2.26731 2.23269 0
7 13 -0.0803189 -0.0366586 2.30299 2.29669 0
7 14 -0.0356692 -0.0403026 2.36652 2.3578 0
7 15 -0.0104082 -0.0559331 2.4168 2.41554 0
7 16 -0.0895384 -0.0937542 2.48938 2.46943 0
7 17 -0.0448699 -0.0251676 2.55167 2.51904 0
7 18 -0.0821033 0.00284978 2.56732 2.56394 0
7 19 -0.085829 -0.0525176 2.60222 2.60372 0
7 20 0.0182827 -0.0481681 2.65939 2.63803 0
7 21 0.0181489 0.0169414 2.69484 2.66655 0
7 22 0.0285061 -0.0150017 2.69877 2.68902 0
7 23 -0.045428 -0.0123093 2.71717 2.70522 0
7 24 0.0200942 -0.0531854 2.72553 2.71501 0
7 25 0.0426324 0.0225435 2.73096 2.71828 0
7 26 -0.00566608 0.0462824 2.71127 2.71501 0
7 27 0.0515002 -0.0322245 2.69591 2.70522 0
7 28 0.0126731 0.0138326 2.68588 2.68902 0
7 29 0.00823396 0.00027566 2.67086 2.66655 0
7 30 0.0510575 0.0489817 2.62615 2.63803 0
7 31 0.0669261 0.0533425 2.58898 2.60372 0
7 32 0.0578325 0.078256 2.54937 2.56394 0
7 33 0.0412859 0.0867994 2.51521 2.51904 0
7 34 0.0351564 0.0981253 2.46179 2.46943 0
7 35 0.0209274 0.051763 2.40723 2.41554 0
7 36 0.0095202 0.0535892 2.35729 2.3578 0
7 37 0.0237024 0.080883 2.29565 2.29669 0
7 38 0.0183813 0.0695492 2.2378 2.23269 0
7 39 0.050828 0.0691727 2.18145 2.16628 0
7 40 0.0903471 0.0797383 2.12146 2.09793 0
7 41 0.077778 0.0901615 2.04865 2.02812 0
7 42 0.120329 0.0534162 1.98486 1.95729 0
7 43 0.0443021 0.0631684 1.90842 1.88588 0
7 44 0.0499675 0.0525383 1.82237 1.8143 0
7 45 0.0591194 0.0343577 1.76246 1.74293 0
7 46 0.0643466 0.0408603 1.70077 1.67214 0
7 47 0.105439 0.0680389 1.63036 1.60223 0
7 48 0.0889954 0.0968332 1.56253 1.5335 0
7 49 0.0248263 0.0374958 1.50185 1.46621 0
7 50 0.0718703 0.0259899 1.44322 1.40058 0
7 51 0.0133279 0.0769683 1.38222 1.33681 0
7 52 0.07975 0.0405838 1.32641 1.27504 0
7 53 0.0725262 0.0852471 1.27455 1.21542 0
7 54 0.0837386 0.0696168 1.20495 1.15804 0
7 55 0.0213281 0.0342432 1.13276 1.10298 0
7 56 0.0955724 0.0293934 1.09216 1.05029 0
7 57 0.0562354 0.0851465 1.05725 1 0
7 58 0.091839 0.0794749 1.00629 0.952117 0
7 59 0.0736592 0.0685277 0.956025 0.906633 0
7 60 0.0193905 0.0108383 0.903271 0.863527 0
7 61 0.0722836 0.0191539 0.86409 0.82276 0
7 62 0.0676398 0.0354919 0.824676 0.784287 0
7 63 0.0241235 0.0167951 0.795141 0.748051 0
8 0 -0.0171933 -0.0508597 1.49459 1.46621 0
8 1 -0.0262667 -0.116332 1.57487 1.5335 0
8 2 -0.04116 -0.0358177 1.63937 1.60223 0
8 3 -0.048815 -0.0981132 1.68915 1.67214 0
8 4 -0.0531883 -0.0515313 1.74275 1.74293 0
8 5 -0.1019 -0.0769363 1.82345 1.8143 0
8 6 -0.118644 -0.0287563 1.91175 1.88588 0
8 7 -0.0858985 -0.0743622 1.98112 1.95729 0
8 8 -0.0842085 -0.0648846 2.0487 2.02812 0
8 9 -0.085343 -0.0747152 2.12036 2.09793 0
8 10 -0.0526965 -0.0722884 2.17674 2.16628 0
8 11 -0.0518747 -0.0944011 2.25425 2.23269 0
8 12 -0.03329 -0.0229896 2.32575 2.29669 0
8 13 -0.10117 -0.0163918 2.37486 2.3578 0
8 14 -0.0407613 -0.10108 2.42428 2.41554 0
8 15 -0.0687058 -0.0612981 2.47042 2.46943 0
8 16 -0.0544529 -0.0862495 2.54307 2.51904 0
8 17 -0.0862636 -0.0189976 2.60075 2.56394 0
8 18 -0.0742393 -0.0633319 2.63327 2.60372 0
8 19 -0.0367393 -0.00355275 2.66364 2.63803 0
8 20 -0.0309556 0.0176134 2.66449 2.66655 0
8 21 0.0224031 0.0109428 2.67561 2.68902 0
8 22 0.0040028 -0.0288862 2.70088 2.70522 0
8 23 0.0114125 0.0333596 2.71844 2.71501 0
8 24 0.00537301 0.0042733 2.70969 2.71828 0
8 25 0.0278513 -0.0273799 2.70066 2.71501 0
8 26 0.00893648 -0.000597259 2.70437 2.70522 0
8 27 -0.027862 0.039934 2.68709 2.68902 0
8 28 -0.00508359 0.0721693 2.65991 2.66655 0
8 29 0.0677958 0.070481 2.61578 2.63803 0
8 30 0.00565755 0.0120893 2.57942 2.60372 0
8 31 0.0156757 0.0482368 2.55739 2.56394 0
8 32 0.00859699 0.0835718 2.52076 2.51904 0
8 33 0.089673 0.0591225 2.46976 2.46943 0
8 34 0.100289 0.0877411 2.41536 2.41554 0
8 35 0.0934195 0.0492366 2.35983 2.3578 0
8 36 0.0703863 0.0974374 2.31279 2.29669 0
8 37 0.0480593 0.0683066 2.23893 2.23269 0
8 38 0.0669521 0.0668293 2.16902 2.16628 0
8 39 0.104207 0.0263639 2.12095 2.09793 0
8 40 0.114235 0.116323 2.04531 2.02812 0
8 41 0.113467 0.0217895 1.9612 1.95729 0
8 42 0.0942641 0.0743328 1.89643 1.88588 0
8 43 0.0898956 0.0247285 1.82307 1.8143 0
8 44 0.0605185 0.0491983 1.75426 1.74293 0
8 45 0.0908555 0.074665 1.68107 1.67214 0
8 46 0.0601164 0.0356513 1.62305 1.60223 0
8 47 0.0499367 0.0370809 1.55074 1.5335 0
8 48 0.0680691 0.0186057 1.49657 1.46621 0
8 49 0.0870477 0.113895 1.44038 1.40058 0
8 50 0.0288617 0.0537862 1.37092 1.33681 0
8 51 0.0572174 0.0355045 1.32937 1.27504 0
8 52 0.104704 0.104222 1.27794 1.21542 0
8 53 0.0899808 0.0827181 1.2181 1.15804 0
8 54 0.0154876 0.0733302 1.14092 1.10298 0
8 55 0.0308267 0.0486221 1.08351 1.05029 0
8 56 0.0343228 0.000844211 1.04342 1 0
8 57 0.0233173 0.0358493 1.01953 0.952117 0
8 58 0.058362 0.0673442 0.967893 0.906633 0
8 59 0.0286214 0.0541231 0.91144 0.863527 0
8 60 0.0589297 0.0817796 0.844025 0.82276 0
8 61 0.017493 0.0183084 0.805617 0.784287 0
8 62 0.0215199 0.0572805 0.782241 0.748051 0
8 63 -0.0165129 -0.0135133 0.755971 0.713987 0
9 0 -0.0873209 -0.0548091 1.56011 1.5335 0
9 1 -0.0526759 -0.0828992 1.62582 1.60223 0
9 2 -0.0471275 -0.0354958 1.69508 1.67214 0
9 3 -0.0424066 -0.042595 1.74418 1.74293 0
9 4 -0.108836 -0.0647485 1.80681 1.8143 0
9 5 -0.0781359 -0.10992 1.89916 1.88588 0
9 6 -0.110965 -0.0665939 1.99018 1.95729 0
9 7 -0.0211376 -0.0308497 2.04755 2.02812 0
9 8 -0.0621716 -0.0332629 2.10287 2.09793 0
9 9 -0.063729 -0.0959273 2.19286 2.16628 0
9 10 -0.0506816 -0.0427688 2.25761 2.23269 0
9 11 -0.0488773 -0.0978434 2.30756 2.29669 0
9 12 -0.0689844 -0.0684472 2.38033 2.3578 0
9 13 -0.0364621 -0.0434345 2.44624 2.41554 0
9 14 -0.0248874 -0.00418248 2.48029 2.46943 0
9 15 -0.012663 -0.0234946 2.51055 2.51904 0
9 16 -0.0643933 -0.0457577 2.57199 2.56394 0
9 17 -0.031998 -0.0145727 2.63292 2.60372 0
9 18 -0.0415829 -0.00989419 2.6653 2.63803 0
9 19 -0.0113725 -0.0501641 2.68851 2.66655 0
9 20 -0.0144348 -0.0228463 2.69559 2.68902 0
9 21 0.0114968 0.0220975 2.68243 2.70522 0
9 22 -0.00464327 -0.0154439 2.69319 2.71501 0
9 23 -0.0345673 0.0274665 2.71157 2.71828 0
9 24 0.0367501 0.0344334 2.70066 2.71501 0
9 25 0.00405359 0.0325596 2.68045 2.70522 0
9 26 0.0390133 0.0143531 2.67354 2.68902 0
9 27 0.055385 0.0670392 2.6495 2.66655 0
9 28 0.0461352 0.0193061 2.62693 2.63803 0
9 29 0.00914054 0.0506931 2.58469 2.60372 0
9 30 0.0295982 0.0437016 2.55197 2.56394 0
9 31 0.0844249 0.0235791 2.51154 2.51904 0
9 32 0.0922654 0.0296667 2.46458 2.46943 0
9 33 0.0371683 0.0125805 2.4068 2.41554 0
9 34 0.0700817 0.0103104 2.35379 2.3578 0
9 35 0.0381955 0.0679397 2.30287 2.29669 0
9 36 0.0805463 0.0765225 2.25185 2.23269 0
9 37 0.051164 0.11527 2.17352 2.16628 0
9 38 0.042008 0.0445946 2.09299 2.09793 0
9 39 0.118355 0.0707452 2.03099 2.02812 0
9 40 0.0908424 0.0663323 1.96 1.95729 0
9 41 0.0246858 0.0724782 1.89189 1.88588 0
9 42 0.118549 0.10623 1.82522 1.8143 0
9 43 0.0624317 0.10506 1.74925 1.74293 0
9 44 0.0659517 0.117576 1.67825 1.67214 0
9 45 0.0600045 0.0553551 1.60783 1.60223 0
9 46 0.112182 0.100576 1.55496 1.5335 0
9 47 0.0317643 0.0439433 1.48941 1.46621 0
9 48 0.0359896 0.0789867 1.42918 1.40058 0
9 49 0.0302235 0.041269 1.35967 1.33681 0
9 50 0.0803975 0.0244846 1.29948 1.27504 0
9 51 0.0941321 0.0164667 1.24801 1.21542 0
9 52 0.0920257 0.0500524 1.20976 1.15804 0
9 53 0.102459 0.0941965 1.14084 1.10298 0
9 54 0.030812 0.00174637 1.07622 1.05029 0
9 55 0.0931799 0.0110004 1.04765 1 0
9 56 0.0176909 0.0728357 1.02626 0.952117 0
9 57 0.0878925 0.0872658 0.972079 0.906633 0
9 58 0.052106 0.0603677 0.92839 0.863527 0
9 59 0.0127509 0.0538971 0.876525 0.82276 0
9 60 -0.00448917 0.0643341 0.824753 0.784287 0
9 61 0.0754082 0.0581185 0.789978 0.748051 0
9 62 0.0676185 0.0821481 0.747736 0.713987 0
9 63 0.0792747 0.0442475 0.688583 0.682029 0
10 0 -0.0309004 -0.102816 1.61431 1.60223 0
10 1 -0.0742434 -0.0736157 1.68889 1.67214 0
10 2 -0.0242399 -0.115606 1.75021 1.74293 0
10 3 -0.10289 -0.114459 1.82799 1.8143 0
10 4 -0.0632746 -0.0352328 1.88911 1.88588 0
10 5 -0.0371952 -0.117903 1.95451 1.95729 0
10 6 -0.0723212 -0.0743272 2.05561 2.02812 0
10 7 -0.0875384 -0.0738385 2.11532 2.09793 0
10 8 -0.116981 -0.110177 2.17937 2.16628 0
10 9 -0.0386915 -0.0251618 2.24821 2.23269 0
10 10 -0.0284405 -0.0171547 2.30364 2.29669 0
10 11 -0.0334678 -0.0403953 2.36469 2.3578 0
10 12 -0.0682564 -0.0105084 2.42396 2.41554 0
10 13 -0.0356477 -0.0528937 2.47542 2.46943 0
10 14 -0.00279753 -0.0139572 2.50072 2.51904 0
10 15 -0.0694143 -0.0336805 2.54234 2.56394 0
10 16 -0.0505665 0.00491388 2.59653 2.60372 0
10 17 -0.0304441 -0.000327921 2.62981 2.63803 0
10 18 -0.0311532 -0.00314561 2.68191 2.66655 0
10 19 0.0258965 0.0258747 2.70342 2.68902 0
10 20 -0.0357078 -0.0455125 2.71605 2.70522 0
10 21 -0.0252874 0.0192258 2.70828 2.71501 0
10 22 -0.0415666 -0.00997916 2.69618 2.71828 0
10 23 -0.0131987 0.0454831 2.7048 2.71501 0
10 24 0.0165442 0.0622824 2.68324 2.70522 0
10 25 -0.00919008 0.0596843 2.67094 2.68902 0
10 26 0.0370535 0.0710227 2.63505 2.66655 0
10 27 -0.00263647 0.0145447 2.59794 2.63803 0
10 28 0.0835937 0.0849315 2.57272 2.60372 0
10 29 0.0754075 0.0616638 2.54263 2.56394 0
10 30 0.0751816 0.0718781 2.50712 2.51904 0
10 31 0.054321 0.097311 2.44846 2.46943 0
10 32 0.034302 0.0382317 2.38928 2.41554 0
10 33 0.0895533 0.0706086 2.34566 2.3578 0
10 34 0.0695754 0.068659 2.29188 2.29669 0
10 35 0.0697816 0.0539577 2.23237 2.23269 0
10 36 0.104692 0.0551842 2.16348 2.16628 0
10 37 0.0850171 0.098636 2.09546 2.09793 0
10 38 0.0914249 0.0537109 2.0341 2.02812 0
10 39 0.0950805 0.0953649 1.9654 1.95729 0
10 40 0.0753926 0.102142 1.88024 1.88588 0
10 41 0.0862856 0.0504627 1.81627 1.8143 0
10 42 0.0755061 0.0467314 1.75442 1.74293 0
10 43 0.0294332 0.0510825 1.68965 1.67214 0
10 44 0.109071 0.116121 1.61699 1.60223 0
10 45 0.105459 0.105228 1.55038 1.5335 0
10 46 0.113555 0.0955759 1.48446 1.46621 0
10 47 0.0238036 0.0704556 1.43659 1.40058 0
10 48 0.0484824 0.0185609 1.36864 1.33681 0
10 49 0.0253382 0.0417923 1.30075 1.27504 0