TITLE="Pressure integrated from Omni2D"
VARIABLES = "X","Y","Dudt","DvDt","Pcal","Preal","Count"
ZONE I=64 J=64
0 0 -0.0356785 -0.0517964 1.11305 1 116
0 1 -0.0464008 -0.0452116 1.13375 1.05029 158
0 2 -0.0204163 -0.0955405 1.1693 1.10298 168
0 3 -0.026002 -0.105696 1.20284 1.15804 169
0 4 -0.107722 -0.0691403 1.28071 1.21542 171
0 5 -0.0796555 -0.0533714 1.32559 1.27504 165
0 6 -0.098353 -0.0864321 1.35161 1.33681 167
0 7 -0.0432507 -0.0511305 1.43643 1.40058 163
0 8 -0.0561438 -0.0355262 1.46559 1.46621 166
0 9 -0.0728348 -0.109236 1.57135 1.5335 158
0 10 -0.0855873 -0.1093 1.62369 1.60223 163
0 11 -0.0693677 -0.0459283 1.66921 1.67214 159
0 12 -0.0813551 -0.0813625 1.74379 1.74293 158
0 13 -0.0752285 -0.119626 1.84462 1.8143 159
0 14 -0.0979385 -0.0568873 1.90221 1.88588 157
0 15 -0.0830627 -0.0877635 1.94743 1.95729 157
0 16 -0.118755 -0.109474 2.0428 2.02812 156
0 17 -0.107442 -0.116065 2.15042 2.09793 154
0 18 -0.112528 -0.0292674 2.16693 2.16628 153
0 19 -0.0960489 -0.105128 2.25661 2.23269 150
0 20 -0.0178781 -0.103846 2.35164 2.29669 153
0 21 -0.0453084 -0.0701782 2.48884 2.3578 153
0 22 -0.0262311 -0.0489472 2.52517 2.41554 152
0 23 -0.0743919 -0.07134 2.51476 2.46943 150
0 24 -0.0274308 -0.0602765 2.56665 2.51904 151
0 25 -0.0548277 -0.0385964 2.60885 2.56394 152
0 26 -0.0692239 -0.0486501 2.64951 2.60372 142
0 27 -0.0772044 -0.028797 2.65775 2.63803 143
0 28 -0.00829131 -0.0282883 2.69576 2.66655 141
0 29 -0.0436992 -0.0163396 2.70283 2.68902 142
0 30 -0.0276041 0.00775952 2.71537 2.70522 142
0 31 0.0201301 0.0169447 2.72375 2.71501 143
0 32 0.0225696 0.0304064 2.71244 2.71828 143
0 33 0.0509124 0.027643 2.67475 2.71501 142
0 34 -0.0188544 -0.0283565 2.64162 2.70522 142
0 35 0.0256169 0.0138066 2.67689 2.68902 141
0 36 0.0738845 0.0241391 2.64007 2.66655 143
0 37 0.0260805 0.0322242 2.62384 2.63803 142
0 38 0.0258757 0.0411104 2.61147 2.60372 152
0 39 0.0767163 0.0914403 2.59283 2.56394 151
0 40 0.0319335 0.067779 2.52965 2.51904 150
0 41 0.0620506 0.066114 2.4691 2.46943 152
0 42 0.107576 0.0928234 2.41517 2.41554 153
0 43 0.0130769 0.0112546 2.37797 2.3578 153
0 44 0.108935 0.0685164 2.31525 2.29669 150
0 45 0.0742863 0.0977897 2.24458 2.23269 153
0 46 0.0898619 0.0448197 2.17667 2.16628 154
0 47 0.0902919 0.029274 2.15628 2.09793 156
0 48 0.0262256 0.028119 2.08673 2.02812 157
0 49 0.0718961 0.0576 1.99125 1.95729 157
0 50 0.061929 0.096917 1.91966 1.88588 159
0 51 0.061281 0.0913103 1.86034 1.8143 158
0 52 0.0995297 0.0847556 1.78116 1.74293 159
0 53 0.10139 0.103956 1.70134 1.67214 163
0 54 0.0617463 0.0436726 1.66335 1.60223 158
0 55 0.06309 0.0817536 1.60001 1.5335 166
0 56 0.080578 0.113006 1.49604 1.46621 163
0 57 0.0667128 0.110487 1.39749 1.40058 167
0 58 0.0619236 0.0336683 1.32889 1.33681 165
0 59 0.0356212 0.0711741 1.26623 1.27504 171
0 60 0.102183 0.0774834 1.2021 1.21542 169
0 61 0.0985672 0.0777027 1.19233 1.15804 168
0 62 0.0196943 0.0929635 1.11035 1.10298 158
0 63 0.00693107 0.0923481 0.986266 1.05029 116
1 0 -0.0196408 -0.0484396 1.1361 1.05029 158
1 1 -0.012559 -0.0524721 1.19336 1.10298 184
1 2 -0.0744552 -0.0435074 1.25887 1.15804 190
1 3 -0.105806 -0.0136125 1.26806 1.21542 191
1 4 -0.0237958 -0.0188021 1.35045 1.27504 191
1 5 -0.0916575 -0.0633907 1.40356 1.33681 188
1 6 -0.0860618 -0.0438376 1.43442 1.40058 186
1 7 -0.083115 -0.0955573 1.52297 1.46621 184
1 8 -0.114968 -0.112695 1.57155 1.5335 184
1 9 -0.0212819 -0.0443005 1.66144 1.60223 179
1 10 -0.119437 -0.0365346 1.71767 1.67214 180
1 11 -0.101579 -0.0556062 1.75659 1.74293 175
1 12 -0.0889426 -0.108415 1.83139 1.8143 175
1 13 -0.0835429 -0.0844179 1.92781 1.88588 176
1 14 -0.0900319 -0.0453168 2.02182 1.95729 175
1 15 -0.117568 -0.0418765 2.06213 2.02812 177
1 16 -0.0889646 -0.044018 2.14498 2.09793 174
1 17 -0.0251583 -0.0371871 2.22292 2.16628 172
1 18 -0.103909 -0.0439235 2.22858 2.23269 175
1 19 -0.0567383 -0.0178782 2.31812 2.29669 173
1 20 -0.0938244 -0.0543265 2.38774 2.3578 176
1 21 -0.009589 -0.0876317 2.49918 2.41554 176
1 22 -0.04765 -0.0766449 2.5705 2.46943 176
1 23 -0.0891126 -0.0121509 2.57379 2.51904 172
1 24 -0.0118108 -0.0909357 2.60117 2.56394 172
1 25 -0.0380523 -0.0690899 2.67022 2.60372 174
1 26 -0.0126667 -0.0151575 2.70193 2.63803 177
1 27 -0.0714899 -0.0423535 2.72619 2.66655 174
1 28 -0.0404978 -0.0641295 2.75591 2.68902 176
1 29 -0.036159 -0.0284276 2.77095 2.70522 176
1 30 0.0193915 0.0362278 2.76636 2.71501 170
1 31 0.0102987 -0.0102139 2.72598 2.71828 168
1 32 0.0419864 0.0414407 2.70119 2.71501 168
1 33 -0.023463 0.0618125 2.64974 2.70522 170
1 34 -0.00668617 0.0429687 2.65741 2.68902 176
1 35 -0.00187013 -0.0191646 2.67831 2.66655 176
1 36 0.018021 0.00523531 2.6352 2.63803 174
1 37 0.0212026 0.0776298 2.59731 2.60372 177
1 38 0.055905 0.0832153 2.56493 2.56394 174
1 39 0.0924614 0.0918792 2.51985 2.51904 172
1 40 0.0120466 0.0919859 2.47055 2.46943 172
1 41 0.034572 0.0765695 2.42047 2.41554 176
1 42 0.0327587 0.0225114 2.374 2.3578 176
1 43 0.0990448 0.0622016 2.32318 2.29669 176
1 44 0.0410393 0.08251 2.24201 2.23269 173
1 45 0.0832069 0.0605486 2.17614 2.16628 175
1 46 0.0451909 0.0396262 2.12731 2.09793 172
1 47 0.114544 0.110491 2.04696 2.02812 174
1 48 0.0944745 0.110679 1.97123 1.95729 177
1 49 0.0581634 0.0304525 1.9018 1.88588 175
1 50 0.0935697 0.074508 1.84182 1.8143 176
1 51 0.105145 0.0951309 1.76933 1.74293 175
1 52 0.0789769 0.0309937 1.70429 1.67214 175
1 53 0.0766735 0.111022 1.61106 1.60223 180
1 54 0.105763 0.103758 1.53505 1.5335 179
1 55 0.102791 0.087428 1.48315 1.46621 184
1 56 0.0830909 0.110934 1.40222 1.40058 184
1 57 0.0708995 0.0831302 1.32369 1.33681 186
1 58 0.043125 0.0856455 1.25433 1.27504 188
1 59 0.0244738 0.06913 1.17892 1.21542 191
1 60 0.104524 0.00918109 1.14284 1.15804 191
1 61 0.078967 0.071288 1.11582 1.10298 190
1 62 0.0089519 0.0988936 1.03487 1.05029 184
1 63 0.0469705 0.0713544 0.945661 1 158
2 0 -0.0518668 -0.100317 1.19841 1.10298 168
2 1 -0.0936554 -0.0418361 1.25016 1.15804 190
2 2 -0.015629 -0.0121587 1.32271 1.21542 196
2 3 -0.0894883 -0.0120213 1.34188 1.27504 197
2 4 -0.0266643 -0.0235343 1.39711 1.33681 200
2 5 -0.0185431 -0.0570171 1.46929 1.40058 195
2 6 -0.0908116 -0.0530097 1.52582 1.46621 198
2 7 -0.0183515 -0.0850853 1.60382 1.5335 199
2 8 -0.0821069 -0.0312438 1.66242 1.60223 194
2 9 -0.0746685 -0.116892 1.72132 1.67214 194
2 10 -0.0626962 -0.0496744 1.81024 1.74293 193
2 11 -0.0926486 -0.0946227 1.87462 1.8143 194
2 12 -0.0728608 -0.0502995 1.90737 1.88588 189
2 13 -0.0627105 -0.0541417 1.97418 1.95729 188
2 14 -0.0376114 -0.106992 2.07574 2.02812 189
2 15 -0.0792359 -0.0335768 2.14045 2.09793 186
2 16 -0.03913 -0.0602528 2.2035 2.16628 187
2 17 -0.0694522 -0.0198474 2.24907 2.23269 182
2 18 -0.109261 -0.0664961 2.2886 2.29669 184
2 19 -0.0136535 -0.0215165 2.36209 2.3578 183
2 20 -0.0715094 -0.083 2.44959 2.41554 184
2 21 -0.00267916 -0.0510318 2.55147 2.46943 184
2 22 -0.0097472 -0.0170845 2.59563 2.51904 186
2 23 -0.0307648 -0.0506662 2.62594 2.56394 183
2 24 -0.0287374 -0.0131698 2.63241 2.60372 181
2 25 -0.0630278 -0.0342521 2.67762 2.63803 178
2 26 0.00536011 -0.0247625 2.70614 2.66655 180
2 27 0.0112573 -0.0151691 2.75236 2.68902 179
2 28 -0.0580349 0.0030003 2.76352 2.70522 183
2 29 0.0285066 0.0345995 2.75426 2.71501 183
2 30 0.0437503 0.0116854 2.71543 2.71828 182
2 31 0.00245061 -0.0365474 2.6949 2.71501 183
2 32 0.0301452 0.0540117 2.67102 2.70522 183
2 33 -0.0148763 -0.00847077 2.6428 2.68902 182
2 34 0.0552991 0.0238544 2.67636 2.66655 183
2 35 0.0385402 0.0712117 2.64494 2.63803 183
2 36 -0.0127812 0.0122841 2.57672 2.60372 179
2 37 0.0899515 0.00235822 2.54552 2.56394 180
2 38 0.026975 0.0625539 2.52067 2.51904 178
2 39 0.0418461 0.031527 2.49824 2.46943 181
2 40 0.102334 0.0534678 2.4452 2.41554 183
2 41 0.0625288 0.0687697 2.38346 2.3578 186
2 42 0.0636345 0.020171 2.32423 2.29669 184
2 43 0.0326995 0.0154986 2.2872 2.23269 184
2 44 0.0225129 0.0763339 2.21405 2.16628 183
2 45 0.0478169 0.0749588 2.11278 2.09793 184
2 46 0.0495964 0.0422854 2.05418 2.02812 182
2 47 0.0661769 0.112887 1.96811 1.95729 187
2 48 0.0718622 0.066275 1.90037 1.88588 186
2 49 0.0625765 0.0719918 1.82465 1.8143 189
2 50 0.115254 0.0942929 1.74694 1.74293 188
2 51 0.0953847 0.0972335 1.66739 1.67214 189
2 52 0.0702358 0.113645 1.58453 1.60223 194
2 53 0.0916498 0.109372 1.4966 1.5335 193
2 54 0.0712809 0.099327 1.43752 1.46621 194
2 55 0.0684466 0.0842856 1.40826 1.40058 194
2 56 0.0882457 0.0206288 1.36212 1.33681 199
2 57 0.081776 0.0929763 1.28213 1.27504 198
2 58 0.0342107 0.0167824 1.19221 1.21542 195
2 59 0.0979002 0.0830636 1.14511 1.15804 200
2 60 0.0216722 0.0172938 1.09237 1.10298 197
2 61 0.026988 0.0317828 1.05351 1.05029 196
2 62 0.0154711 0.0596177 1.01171 1 190
2 63 0.0291536 0.0273301 0.946846 0.952117 168
3 0 -0.0927911 -0.0160308 1.22411 1.15804 169
3 1 -0.021479 -0.0330529 1.28263 1.21542 191
3 2 -0.0576227 -0.0478651 1.3444 1.27504 197
3 3 -0.0535186 -0.0627667 1.41329 1.33681 198
3 4 -0.0974803 -0.0537561 1.45195 1.40058 204
3 5 -0.0834458 -0.0558139 1.53287 1.46621 203
3 6 -0.0470144 -0.0228172 1.5877 1.5335 202
3 7 -0.0413471 -0.0805476 1.63942 1.60223 199
3 8 -0.0236982 -0.0593956 1.72612 1.67214 196
3 9 -0.0258618 -0.0740071 1.78602 1.74293 197
3 10 -0.0523724 -0.0729712 1.85592 1.8143 196
3 11 -0.0761448 -0.044108 1.92545 1.88588 196
3 12 -0.101272 -0.0494728 1.94574 1.95729 194
3 13 -0.0674435 -0.0956332 2.02563 2.02812 191
3 14 -0.0776754 -0.106562 2.1171 2.09793 192
3 15 -0.0997509 -0.115718 2.22193 2.16628 192
3 16 -0.0762423 -0.0422038 2.27111 2.23269 191
3 17 -0.0531161 -0.0391071 2.3057 2.29669 190
3 18 -0.0869465 -0.058109 2.34737 2.3578 186
3 19 -0.0826246 -0.0963055 2.42512 2.41554 186
3 20 -0.0273782 -0.0671796 2.49942 2.46943 190
3 21 -0.00592405 -0.0614244 2.58818 2.51904 189
3 22 -0.0515176 -0.0435704 2.63279 2.56394 186
3 23 -0.0691812 -0.0518674 2.68963 2.60372 188
3 24 -0.0526677 -0.01137 2.68467 2.63803 187
3 25 -0.0146488 -0.0138905 2.7027 2.66655 187
3 26 -0.0634191 -0.00211718 2.71229 2.68902 188
3 27 0.00550733 -0.042291 2.75733 2.70522 187
3 28 0.0175532 0.0401371 2.77711 2.71501 189
3 29 0.0152709 -0.0424374 2.7457 2.71828 189
3 30 -0.0394167 0.000106931 2.73044 2.71501 190
3 31 -0.0202814 0.0349663 2.68301 2.70522 185
3 32 -0.0112307 0.0635966 2.62222 2.68902 185
3 33 -0.00881683 0.0276465 2.6227 2.66655 190
3 34 0.0729892 0.0546895 2.62104 2.63803 189
3 35 -0.00220652 0.0407346 2.59604 2.60372 189
3 36 0.0580975 0.0315783 2.55062 2.56394 187
3 37 0.02896 0.0247687 2.51664 2.51904 188
3 38 0.0858378 0.100998 2.44642 2.46943 187
3 39 0.104232 0.0487627 2.42143 2.41554 187
3 40 0.0842755 0.0658859 2.3716 2.3578 188
3 41 0.0953554 0.0538561 2.31857 2.29669 186
3 42 0.0772752 0.0990639 2.27239 2.23269 189
3 43 0.103757 0.0467838 2.21154 2.16628 190
3 44 0.0988278 0.113634 2.14731 2.09793 186
3 45 0.0619748 0.0850174 2.0429 2.02812 186
3 46 0.0627952 0.0769209 1.96833 1.95729 190
3 47 0.0879032 0.0665013 1.9022 1.88588 191
3 48 0.0650587 0.0903577 1.83647 1.8143 192
3 49 0.0901904 0.0458686 1.76461 1.74293 192
3 50 0.028071 0.0564988 1.69242 1.67214 191
3 51 0.0416557 0.0664321 1.61555 1.60223 194
3 52 0.0827669 0.113268 1.51896 1.5335 196
3 53 0.0498401 0.0446613 1.42958 1.46621 196
3 54 0.102875 0.0239603 1.40788 1.40058 197
3 55 0.101633 0.0140017 1.38921 1.33681 196
3 56 0.100007 0.0967776 1.3203 1.27504 199
3 57 0.0218913 0.0654604 1.20677 1.21542 202
3 58 0.0295176 0.076582 1.14717 1.15804 203
3 59 0.0862827 0.026527 1.09913 1.10298 204
3 60 0.0108094 0.0184027 1.05569 1.05029 198
3 61 0.0358631 0.0878292 1.00774 1 197
3 62 0.0798763 0.0226321 0.968066 0.952117 191
3 63 0.0168852 0.0678423 0.910774 0.906633 169
4 0 -0.0697517 -0.0533744 1.25263 1.21542 171
4 1 -0.0463711 -0.0422818 1.28183 1.27504 191
4 2 -0.0155899 -0.0948326 1.3761 1.33681 200
4 3 -0.0303242 -0.060823 1.44805 1.40058 204
4 4 -0.0562746 -0.0899952 1.51885 1.46621 202
4 5 -0.0334635 -0.0729399 1.58583 1.5335 203
4 6 -0.0539065 -0.0663504 1.62511 1.60223 201
4 7 -0.111408 -0.1005 1.68956 1.67214 202
4 8 -0.0704176 -0.0232322 1.76944 1.74293 201
4 9 -0.0787684 -0.110738 1.84436 1.8143 202
4 10 -0.0311148 -0.026231 1.91943 1.88588 199
4 11 -0.0428977 -0.0603135 1.98174 1.95729 196
4 12 -0.0670167 -0.0209986 2.02732 2.02812 195
4 13 -0.0936097 -0.113088 2.09888 2.09793 195
4 14 -0.0906433 -0.0437877 2.2193 2.16628 198
4 15 -0.0409884 -0.0287688 2.27439 2.23269 196
4 16 -0.0524532 -0.0980294 2.35019 2.29669 194
4 17 -0.0941609 -0.10932 2.42024 2.3578 193
4 18 -0.0934075 -0.0246183 2.45353 2.41554 195
4 19 -0.0816972 -0.00702413 2.5187 2.46943 193
4 20 -0.0724287 -0.00538672 2.54629 2.51904 192
4 21 -0.0256046 -0.0243996 2.62857 2.56394 195
4 22 -0.0655182 0.0120563 2.66367 2.60372 190
4 23 0.0114892 -0.0272657 2.71667 2.63803 191
4 24 -0.0746702 0.00574449 2.72412 2.66655 192
4 25 -0.0582434 -0.0140655 2.73509 2.68902 189
4 26 -0.0106441 0.000917691 2.76167 2.70522 185
4 27 0.0261979 0.0317244 2.78827 2.71501 190
4 28 0.02296 -0.0118583 2.78274 2.71828 192
4 29 0.00488359 0.0546189 2.74365 2.71501 192
4 30 -0.0367449 0.0322239 2.71121 2.70522 195
4 31 -0.00336846 0.00368018 2.67705 2.68902 191
4 32 -0.0236249 0.0476797 2.62112 2.66655 191
4 33 0.070159 -0.0112812 2.62392 2.63803 195
4 34 0.0283038 0.0273905 2.60363 2.60372 192
4 35 0.0822923 0.0738375 2.56518 2.56394 192
4 36 0.079169 0.0872186 2.50109 2.51904 190
4 37 0.0808125 0.0394425 2.44949 2.46943 185
4 38 0.0386911 0.00669652 2.39476 2.41554 189
4 39 0.0773781 0.0414524 2.35294 2.3578 192
4 40 0.0418621 0.0910119 2.3116 2.29669 191
4 41 0.0546908 0.0234098 2.24383 2.23269 190
4 42 0.0853795 0.0765781 2.20835 2.16628 195
4 43 0.0531303 0.0770377 2.13416 2.09793 192
4 44 0.090188 0.0644707 2.06488 2.02812 193
4 45 0.0345175 0.11322 1.98149 1.95729 195
4 46 0.0735484 0.106757 1.88545 1.88588 193
4 47 0.045032 0.102395 1.81347 1.8143 194
4 48 0.108149 0.0809032 1.74549 1.74293 196
4 49 0.053626 0.0597814 1.68804 1.67214 198
4 50 0.112091 0.0673888 1.61718 1.60223 195
4 51 0.0628032 0.0844815 1.53396 1.5335 195
4 52 0.0291271 0.0214909 1.46966 1.46621 196
4 53 0.0771139 0.0551043 1.41266 1.40058 199
4 54 0.0383819 0.0604582 1.35743 1.33681 202
4 55 0.0934087 0.103638 1.29644 1.27504 201
4 56 0.0164962 0.0891454 1.23523 1.21542 202
4 57 0.102937 0.0380698 1.17042 1.15804 201
4 58 0.0119526 0.0605929 1.12008 1.10298 203
4 59 0.0561163 0.0902372 1.04257 1.05029 202
4 60 0.0583403 0.0618766 0.971066 1 204
4 61 0.0940366 0.0144844 0.94896 0.952117 200
4 62 0.0781642 0.0834997 0.907426 0.906633 191
4 63 0.0546572 0.040383 0.853527 0.863527 171
5 0 -0.0393223 -0.0743867 1.33391 1.27504 165
5 1 -0.101802 -0.0628204 1.36465 1.33681 188
5 2 -0.100898 -0.10264 1.4268 1.40058 195
5 3 -0.0703606 -0.0330321 1.53048 1.46621 203
5 4 -0.0544237 -0.0509889 1.60291 1.5335 203
5 5 -0.0237127 -0.0998639 1.64606 1.60223 204
5 6 -0.0739946 -0.0905755 1.69445 1.67214 205
5 7 -0.0677718 -0.0563174 1.78025 1.74293 207
5 8 -0.0427841 -0.0215768 1.83278 1.8143 204
5 9 -0.0916782 -0.114645 1.91835 1.88588 204
5 10 -0.119664 -0.0711224 2.0012 1.95729 204
5 11 -0.0328909 -0.0688998 2.03787 2.02812 204
5 12 -0.0691706 -0.0663587 2.09701 2.09793 201
5 13 -0.104975 -0.0194395 2.16915 2.16628 200
5 14 -0.0204477 -0.101015 2.29261 2.23269 199
5 15 -0.0995649 -0.105115 2.38723 2.29669 194
5 16 -0.0743062 -0.0115213 2.42313 2.3578 200
5 17 -0.0829221 -0.0977413 2.4844 2.41554 196
5 18 -0.0588146 -0.0194046 2.51167 2.46943 195
5 19 -0.0516746 -0.0915556 2.54923 2.51904 198
5 20 -0.0662691 -0.072631 2.59042 2.56394 195
5 21 0.00870942 -0.0445098 2.65488 2.60372 196
5 22 0.00646636 -0.0455384 2.70614 2.63803 196
5 23 0.0163727 -0.0366479 2.74659 2.66655 193
5 24 -0.0464512 -0.0225692 2.74655 2.68902 196
5 25 -0.0322534 0.013619 2.76469 2.70522 194
5 26 -0.00295633 0.0369132 2.7745 2.71501 190
5 27 0.0301742 0.0378255 2.75583 2.71828 193
5 28 0.0394903 -0.0112271 2.74294 2.71501 194
5 29 -0.0109316 -0.0240964 2.74375 2.70522 194
5 30 0.022303 0.0645334 2.70236 2.68902 192
5 31 0.0360694 0.0298504 2.6707 2.66655 191
5 32 0.0144428 0.0651897 2.62901 2.63803 191
5 33 0.0740711 0.0388506 2.57952 2.60372 192
5 34 -0.00616225 0.0184914 2.5487 2.56394 194
5 35 0.0765156 0.0908072 2.50233 2.51904 194
5 36 0.0942779 0.0534988 2.43467 2.46943 193
5 37 0.0824416 0.021847 2.39653 2.41554 190
5 38 0.0116556 0.0426326 2.34805 2.3578 194
5 39 0.076358 0.0647228 2.28653 2.29669 196
5 40 0.114657 0.0746055 2.23629 2.23269 193
5 41 0.0325359 0.0334201 2.19099 2.16628 196
5 42 0.0955344 0.0623785 2.13893 2.09793 196
5 43 0.111961 0.099617 2.05733 2.02812 195
5 44 0.0389341 0.0433807 1.98149 1.95729 198
5 45 0.0780327 0.0734495 1.94018 1.88588 195
5 46 0.0434962 0.0894479 1.85006 1.8143 196
5 47 0.0990662 0.120468 1.75333 1.74293 200
5 48 0.0253508 0.0385374 1.68678 1.67214 194
5 49 0.0639291 0.115397 1.61751 1.60223 199
5 50 0.0280122 0.0522287 1.52084 1.5335 200
5 51 0.05688 0.0641594 1.46492 1.46621 201
5 52 0.107985 0.105529 1.40958 1.40058 204
5 53 0.0308388 0.0834849 1.33858 1.33681 204
5 54 0.10338 0.0956602 1.26879 1.27504 204
5 55 0.0425684 0.0846528 1.2141 1.21542 204
5 56 0.0947846 0.0203925 1.18526 1.15804 207
5 57 0.00982252 0.0602716 1.13763 1.10298 205
5 58 0.0552883 0.0750113 1.06993 1.05029 204
5 59 0.0575551 0.0660537 0.994615 1 203
5 60 -0.000647299 0.0621198 0.921836 0.952117 203
5 61 0.0870668 0.00870497 0.896124 0.906633 195
5 62 0.0795508 0.0243583 0.859527 0.863527 188
5 63 0.00220503 0.0106328 0.832136 0.82276 165
6 0 -0.0157161 -0.0169742 1.39917 1.33681 167
6 1 -0.0541254 -0.0887866 1.44254 1.40058 186
6 2 -0.0413591 -0.104301 1.52059 1.46621 198
6 3 -0.0717707 -0.102414 1.60733 1.5335 202
6 4 -0.020704 -0.0313051 1.6943 1.60223 201
6 5 -0.105776 -0.0442502 1.71644 1.67214 205
6 6 -0.0771242 -0.04139 1.7514 1.74293 202
6 7 -0.0573664 -0.107607 1.84121 1.8143 209
6 8 -0.102253 -0.051131 1.92288 1.88588 205
6 9 -0.037657 -0.0803268 2.00327 1.95729 206
6 10 -0.0309663 -0.0232372 2.07617 2.02812 207
6 11 -0.118559 -0.0365374 2.09378 2.09793 204
6 12 -0.0972777 -0.0483543 2.15207 2.16628 204
6 13 -0.0913906 -0.0397145 2.22057 2.23269 202
6 14 -0.0160751 -0.0909204 2.31555 2.29669 204
6 15 -0.0140677 -0.0841473 2.42087 2.3578 199
6 16 -0.00735479 -0.0372638 2.47215 2.41554 202
6 17 -0.0135532 -0.0109284 2.53048 2.46943 199
6 18 -0.0909782 -0.0671376 2.58065 2.51904 199
6 19 -0.0724312 -0.038984 2.61857 2.56394 199
6 20 -0.0864807 -0.00428249 2.64188 2.60372 199
6 21 0.00620822 0.0157424 2.66171 2.63803 196
6 22 -0.0371621 0.00523677 2.69287 2.66655 198
6 23 0.00847915 -0.00823118 2.75035 2.68902 196
6 24 -0.0524005 0.000343406 2.75248 2.70522 197
6 25 -0.0258896 -0.00225364 2.77064 2.71501 197
6 26 -0.046465 -0.0375265 2.80937 2.71828 196
6 27 -0.00158417 0.0510145 2.78184 2.71501 194
6 28 -0.0175318 0.0477069 2.74168 2.70522 197
6 29 0.0196935 0.00529865 2.70797 2.68902 195
6 30 -0.0220471 0.0670517 2.66685 2.66655 192
6 31 0.0562293 0.0723061 2.62165 2.63803 195
6 32 0.0806517 0.0382945 2.59173 2.60372 195
6 33 0.0464261 0.071683 2.52694 2.56394 192
6 34 0.0689204 0.0395846 2.48187 2.51904 195
6 35 0.0967023 0.0996425 2.44426 2.46943 197
6 36 0.0203372 0.0334389 2.38599 2.41554 194
6 37 0.0362189 0.0778743 2.35056 2.3578 196
6 38 0.0837113 0.0518097 2.27379 2.29669 197
6 39 0.0830722 0.0297124 2.2037 2.23269 197
6 40 0.114259 0.0550305 2.14325 2.16628 196
6 41 0.102501 0.0459943 2.11197 2.09793 198
6 42 0.0429467 0.0801843 2.05721 2.02812 196
6 43 0.033318 0.0532093 1.97858 1.95729 199
6 44 0.0669993 0.0346697 1.91912 1.88588 199
6 45 0.0716843 0.0470239 1.87051 1.8143 199
6 46 0.0789337 0.054117 1.78748 1.74293 199
6 47 0.0590948 0.0739674 1.71767 1.67214 202
6 48 0.0365471 0.106215 1.64346 1.60223 199
6 49 0.114954 0.0862252 1.55468 1.5335 204
6 50 0.0357565 0.0413558 1.48776 1.46621 202
6 51 0.0466502 0.05189 1.41135 1.40058 204
6 52 0.0150861 0.0266456 1.35852 1.33681 204
6 53 0.105626 0.0334009 1.30176 1.27504 207
6 54 0.0491587 0.0485091 1.22852 1.21542 206
6 55 0.0274575 0.0523902 1.17566 1.15804 205
6 56 0.0948738 0.016789 1.14469 1.10298 209
6 57 0.0428195 0.0109302 1.11832 1.05029 202
6 58 0.0459904 0.0968912 1.03541 1 205
6 59 0.0849275 0.0172544 0.955553 0.952117 201
6 60 0.0338563 0.000300257 0.909207 0.906633 202
6 61 0.0215779 0.0747634 0.850109 0.863527 198
6 62 0.0607397 0.00178281 0.800723 0.82276 186
6 63 0.0110227 0.073175 0.762451 0.784287 167
7 0 -0.0348348 -0.0725371 1.45047 1.40058 163
7 1 -0.0692203 -0.0676477 1.52472 1.46621 184
7 2 -0.0381412 -0.0902412 1.60944 1.5335 199
7 3 -0.0362207 -0.0212865 1.65583 1.60223 199
7 4 -0.0233082 -0.104112 1.75011 1.67214 202
7 5 -0.0819674 -0.0411135 1.79981 1.74293 207
7 6 -0.10943 -0.0355242 1.83055 1.8143 209
7 7 -0.10454 -0.0769441 1.91415 1.88588 210
7 8 -0.0782751 -0.0484156 1.99858 1.95729 206
7 9 -0.0990175 -0.0589999 2.06278 2.02812 211
7 10 -0.0821865 -0.0239874 2.1004 2.09793 207
7 11 -0.0698947 -0.0222444 2.16318 2.16628 210
7 12 -0.0620969 -0.0993991 2.20498 2.23269 204
7 13 -0.0347162 -0.0925822 2.27524 2.29669 204
7 14 -0.0440129 -0.0730031 2.34706 2.3578 206
7 15 -0.00721943 -0.0622987 2.43179 2.41554 204
7 16 -0.0750646 -0.0336754 2.49388 2.46943 205
7 17 4.42088e-05 -0.0529502 2.56328 2.51904 200
7 18 -0.025629 -0.0334651 2.61943 2.56394 204
7 19 -0.0300137 -0.0646821 2.64999 2.60372 204
7 20 -0.0301462 0.00787612 2.66904 2.63803 205
7 21 -0.0458375 -0.00343796 2.66052 2.66655 196
7 22 0.0122812 -0.00688725 2.69309 2.68902 200
7 23 0.034948 -0.0322677 2.73984 2.70522 200
7 24 -0.0209708 -0.0326 2.76908 2.71501 199
7 25 0.0217158 -0.0232141 2.77515 2.71828 196
7 26 0.0470584 -0.0129282 2.80569 2.71501 196
7 27 -0.00246252 0.0163565 2.81071 2.70522 198
7 28 0.0132978 0.0137616 2.76246 2.68902 194
7 29 0.0149545 0.0521015 2.70407 2.66655 197
7 30 -0.0123728 0.0761525 2.65121 2.63803 199
7 31 0.0257284 0.0432663 2.61789 2.60372 198
7 32 0.00753844 0.0858534 2.55939 2.56394 198
7 33 0.0296548 0.00217886 2.48946 2.51904 199
7 34 0.0185534 0.0513509 2.43309 2.46943 197
7 35 0.0824744 0.0731858 2.38498 2.41554 194
7 36 0.0621404 0.0418415 2.34369 2.3578 198
7 37 0.0811465 0.0453597 2.29154 2.29669 196
7 38 0.0791848 0.0937528 2.19929 2.23269 196
7 39 0.0400398 0.0518146 2.14002 2.16628 199
7 40 0.0516897 0.06478 2.07027 2.09793 200
7 41 0.0735324 0.0336789 2.02026 2.02812 200
7 42 0.116204 0.117762 1.95305 1.95729 196
7 43 0.0967624 0.064305 1.90597 1.88588 205
7 44 0.0522315 0.103406 1.84101 1.8143 204
7 45 0.0873831 0.0626708 1.78233 1.74293 204
7 46 0.0218776 0.0638131 1.71986 1.67214 200
7 47 0.0723676 0.0420154 1.67111 1.60223 205
7 48 0.110757 0.0385125 1.59564 1.5335 204
7 49 0.0282738 0.079652 1.50788 1.46621 206
7 50 0.0909584 0.0398502 1.43526 1.40058 204
7 51 0.0626019 0.0258124 1.36662 1.33681 204
7 52 0.102752 0.0409263 1.33195 1.27504 210
7 53 0.0293326 0.0309977 1.25199 1.21542 207
7 54 0.0148011 0.0373651 1.18359 1.15804 211
7 55 0.0674221 0.0357183 1.13466 1.10298 206
7 56 0.087516 0.0264025 1.1001 1.05029 210
7 57 0.0887132 0.0390264 1.05078 1 209
7 58 0.0508687 0.0909616 0.969527 0.952117 207
7 59 0.0308585 0.0168366 0.899479 0.906633 202
7 60 0.0483567 0.045429 0.86008 0.863527 199
7 61 0.0374421 0.0385736 0.826154 0.82276 199
7 62 0.0541536 0.0726691 0.759622 0.784287 184
7 63 0.0619199 0.0616716 0.712792 0.748051 163
8 0 -0.0772997 -0.0584406 1.50736 1.46621 166
8 1 -0.038983 -0.0392751 1.58596 1.5335 184
8 2 -0.049504 -0.0727468 1.66362 1.60223 194
8 3 -0.115493 -0.0580343 1.71129 1.67214 196
8 4 -0.0473809 -0.0455908 1.78663 1.74293 201
8 5 -0.0606338 -0.0229251 1.82596 1.8143 204
8 6 -0.0527762 -0.0889193 1.87325 1.88588 205
8 7 -0.0446548 -0.0926992 1.94085 1.95729 206
8 8 -0.0733032 -0.0794168 2.06192 2.02812 208
8 9 -0.0286407 -0.080416 2.13113 2.09793 215
8 10 -0.0659358 -0.0861861 2.17159 2.16628 212
8 11 -0.0308286 -0.0738356 2.25581 2.23269 210
8 12 -0.089216 -0.0700762 2.27868 2.29669 208
8 13 -0.0853834 -0.0862295 2.33219 2.3578 210
8 14 -0.102875 -0.0442614 2.39139 2.41554 209
8 15 -0.0222871 -0.101348 2.4581 2.46943 207
8 16 -0.0662435 -0.050773 2.54476 2.51904 206
8 17 -0.0328212 -0.0135165 2.58478 2.56394 203
8 18 -0.0532704 -0.0395136 2.61142 2.60372 209
8 19 -0.0230138 -0.0186712 2.66717 2.63803 206
8 20 -0.026202 0.0105925 2.65013 2.66655 202
8 21 0.0221864 -0.0311771 2.67822 2.68902 202
8 22 -0.005084 -0.0507706 2.69674 2.70522 200
8 23 0.00103989 0.00136784 2.7317 2.71501 203
8 24 0.0198356 -0.0229603 2.74852 2.71828 200
8 25 0.0131129 -0.0351413 2.76749 2.71501 202
8 26 0.0624784 -0.0215887 2.76036 2.70522 202
8 27 0.0682673 -0.0145526 2.76778 2.68902 202
8 28 0.0377864 -0.0123155 2.72861 2.66655 198
8 29 0.0313844 0.00313002 2.68309 2.63803 197
8 30 0.0376918 0.0110926 2.61448 2.60372 199
8 31 0.0644444 0.00423607 2.59096 2.56394 198
8 32 0.0879548 0.0503734 2.51629 2.51904 198
8 33 0.0242167 0.0348876 2.46405 2.46943 199
8 34 0.0843222 0.0279607 2.39844 2.41554 197
8 35 0.0647455 0.0253358 2.35113 2.3578 198
8 36 0.0691644 0.0620924 2.29222 2.29669 202
8 37 0.104881 0.0784195 2.21407 2.23269 202
8 38 0.0340377 0.0733929 2.13521 2.16628 202
8 39 0.117917 0.0526912 2.07969 2.09793 200
8 40 0.0971578 0.105196 1.97917 2.02812 203
8 41 0.109897 0.0213843 1.92025 1.95729 200
8 42 0.08381 0.0723938 1.88123 1.88588 202
8 43 0.101077 0.0528846 1.81478 1.8143 202
8 44 0.0800629 0.0322822 1.76546 1.74293 206
8 45 0.0810245 0.0464398 1.70883 1.67214 209
8 46 0.0790433 0.040046 1.66254 1.60223 203
8 47 0.111569 0.0901971 1.58726 1.5335 206
8 48 0.0913499 0.0996579 1.49186 1.46621 207
8 49 0.0304249 0.0546457 1.42995 1.40058 209
8 50 0.0315386 0.0437231 1.39844 1.33681 210
8 51 0.0268153 0.0682588 1.32416 1.27504 208
8 52 0.106887 0.0913028 1.24023 1.21542 210
8 53 0.0615103 0.0789305 1.18485 1.15804 212
8 54 0.0566852 0.0814975 1.10768 1.10298 215
8 55 0.0990542 0.0488867 1.05313 1.05029 208
8 56 0.0811868 0.0435355 1.03036 1 206
8 57 0.0357748 0.00844189 1.00095 0.952117 205
8 58 0.0217105 0.065528 0.934047 0.906633 204
8 59 0.00440381 0.029714 0.868729 0.863527 201
8 60 0.0158324 0.044855 0.83339 0.82276 196
8 61 0.0245517 0.0548121 0.793368 0.784287 194
8 62 0.038431 0.0813039 0.723296 0.748051 184
8 63 0.0445568 -0.0136323 0.687525 0.713987 166
9 0 -0.085897 -0.0231556 1.52857 1.5335 158
9 1 -0.052415 -0.0986477 1.59319 1.60223 179
9 2 -0.0330489 -0.116737 1.70427 1.67214 194
9 3 -0.0625994 -0.0236992 1.76441 1.74293 197
9 4 -0.0279351 -0.0553047 1.83672 1.8143 202
9 5 -0.0560529 -0.0601237 1.88355 1.88588 204
9 6 -0.0779957 -0.0528554 1.92785 1.95729 206
9 7 -0.119494 -0.102901 2.01485 2.02812 211
9 8 -0.0219468 -0.0759658 2.14141 2.09793 215
9 9 -0.0713346 -0.0238059 2.21088 2.16628 210
9 10 -0.106057 -0.0443971 2.25265 2.23269 212
9 11 -0.0158944 -0.0550577 2.32646 2.29669 213
9 12 -0.069279 -0.0195782 2.3441 2.3578 210
9 13 -0.0956114 -0.0668906 2.3937 2.41554 212
9 14 -0.05105 -0.0196185 2.44036 2.46943 212
9 15 -0.0453485 -0.06858 2.48843 2.51904 209
9 16 -0.0156486 0.00717804 2.5492 2.56394 208
9 17 -0.040806 -0.0507879 2.60057 2.60372 205
9 18 -0.00988839 -0.0197929 2.63557 2.63803 205
9 19 0.021293 -0.0406108 2.67018 2.66655 209
9 20 -0.0512328 0.0128448 2.67568 2.68902 204
9 21 -0.0281511 -0.0386897 2.69631 2.70522 203
9 22 -0.0545741 -0.00233152 2.71521 2.71501 206
9 23 0.0446256 0.0224022 2.73371 2.71828 204
9 24 0.0197133 -0.00232389 2.73785 2.71501 202
9 25 0.0249981 0.0470282 2.7432 2.70522 204
9 26 0.0134216 -0.00597692 2.73051 2.68902 204
9 27 0.0695034 0.0557094 2.721 2.66655 205
9 28 0.0265327 0.0602842 2.70089 2.63803 197
9 29 0.0277891 0.0775275 2.6552 2.60372 197
9 30 0.0354656 0.057399 2.56171 2.56394 203
9 31 0.0969045 0.067979 2.50736 2.51904 203
9 32 0.0213153 0.0698921 2.44941 2.46943 203
9 33 0.104768 0.0613192 2.40381 2.41554 203
9 34 0.0210492 0.0219683 2.3506 2.3578 197
9 35 0.0713586 0.0387954 2.28539 2.29669 197
9 36 0.0528648 0.0337412 2.22463 2.23269 205
9 37 0.0258216 0.0858485 2.14898 2.16628 204
9 38 0.0606868 0.0781442 2.07026 2.09793 204
9 39 0.0857008 0.048786 2.0105 2.02812 202
9 40 0.0226533 0.112412 1.91167 1.95729 204
9 41 0.0786708 0.0975625 1.82008 1.88588 206
9 42 0.110697 0.0290464 1.78519 1.8143 203
9 43 0.0310698 0.105325 1.74746 1.74293 204
9 44 0.104358 0.107379 1.67295 1.67214 209
9 45 0.0897903 0.0647501 1.60468 1.60223 205
9 46 0.113977 0.0695673 1.55379 1.5335 205
9 47 0.06643 0.0704348 1.4915 1.46621 208
9 48 0.0772664 0.0194494 1.4216 1.40058 209
9 49 0.0865871 0.0444993 1.37357 1.33681 212
9 50 0.073059 0.0864282 1.32746 1.27504 212
9 51 0.0792129 0.0693489 1.25878 1.21542 210
9 52 0.0823102 0.062276 1.18058 1.15804 213
9 53 0.0454256 0.0420418 1.12104 1.10298 212
9 54 0.067798 0.025235 1.05833 1.05029 210
9 55 0.0659291 0.00717626 1.01069 1 215
9 56 0.0460337 0.0303495 0.983084 0.952117 211
9 57 0.0235181 0.04684 0.937295 0.906633 206
9 58 0.0145703 -0.00256928 0.881531 0.863527 204
9 59 0.0306732 0.0744247 0.848842 0.82276 202
9 60 0.00278533 0.0267313 0.797727 0.784287 197
9 61 0.0841099 0.00751173 0.756212 0.748051 194
9 62 0.0197423 0.0277076 0.718852 0.713987 179
9 63 -0.00184496 0.0655317 0.67388 0.682029 158
10 0 -0.106119 -0.0960414 1.59987 1.60223 163
10 1 -0.112488 -0.0487227 1.65484 1.67214 180
10 2 -0.0465263 -0.0826755 1.75076 1.74293 193
10 3 -0.0432149 -0.0625384 1.83081 1.8143 196
10 4 -0.0321909 -0.112103 1.8734 1.88588 199
10 5 -0.0969096 -0.0388365 1.94811 1.95729 204
10 6 -0.103457 -0.0760482 2.03271 2.02812 207
10 7 -0.112536 -0.108617 2.09477 2.09793 207
10 8 -0.0331153 -0.0716344 2.17327 2.16628 212
10 9 -0.0595348 -0.0378177 2.24783 2.23269 212
10 10 -0.0369682 -0.0419347 2.30428 2.29669 210
10 11 -0.011 -0.0243592 2.36514 2.3578 214
10 12 -0.0494236 -0.0878691 2.40086 2.41554 215
10 13 -0.0370721 -0.0934646 2.43482 2.46943 214
10 14 -0.0772142 -0.0349127 2.46863 2.51904 211
10 15 -0.0694532 -0.0874297 2.54187 2.56394 211
10 16 -0.0124706 -0.0166176 2.58119 2.60372 210
10 17 -0.00980392 -9.65357e-05 2.61172 2.63803 212
10 18 -0.0423218 -0.0152094 2.62637 2.66655 210
10 19 -0.030087 0.0102209 2.67846 2.68902 212